Executable      : siesta
Version         : 5.2.1
Architecture    : x86_64
Compiler version: GNU-13.3.0
Compiler flags  : -march=nocona -mtune=haswell -ftree-vectorize -fPIC -fstack-protector-strong -fno-plt -O2 -ffunction-sections -pipe -isystem <prefix>/include -I<prefix>/_build_env/include -fdebug-prefix-map=<prefix>/work=/usr/local/src/conda/siesta-5.2.1 -fdebug-prefix-map=<prefix>=/usr/local/src/conda-prefix -I<prefix>/lib -fallow-argument-mismatch -O3
Parallelisations: none
NetCDF support
NetCDF-4 support
Lua support
DFT-D3 support

Runtime information:
* Directory : /home/samba/homes/convidat/Simulacions/0.1
* Running in serial mode.
>> Start of run:  24-MAR-2025  16:47:35

                           *********************** 
                           *  WELCOME TO SIESTA  * 
                           *********************** 

 NOTE: Siesta V5 introduces some new defaults for basis-set generation
 NOTE: which might lead to slightly different numerical results.
 NOTE: Please see the manual for full details and compatibility measures.


reinit: Reading from file xoc.fdf

reinit: -----------------------------------------------------------------------
reinit: System Name: H2 + O2 -> H2O2 reaction
reinit: -----------------------------------------------------------------------
reinit: System Label: xoc
reinit: -----------------------------------------------------------------------

initatom: Reading input for the pseudopotentials and atomic orbitals ----------
Species number:   1 Atomic number:    8 Label: O
Species number:   2 Atomic number:    1 Label: H

Ground state valence configuration (from tables):   2s02  2p04  3d00  4f00
Ground state valence configuration (from tables):   1s01  2p00  3d00  4f00

---- Processing specs for species: O
Reading pseudopotential information in formatted form from:
  O.psf

---- Processing specs for species: H
Reading pseudopotential information in unformatted form from:
  H.vps

---- Pseudopotential check for O 

Pseudopotential generated from a fully relativistic atomic calculation
There are spin-orbit semi-local pseudopotentials available

Pseudized shells:
2s( 2.00) rc: 1.14
2p( 4.00) rc: 1.14
3d( 0.00) rc: 1.14
4f( 0.00) rc: 1.14
Valence configuration for ps generation: (assumed as above)

---- Pseudopotential check for H 

Pseudized shells:
1s( 1.00) rc: 1.25
2p( 0.00) rc: 1.25
3d( 0.00) rc: 1.25
4f( 0.00) rc: 1.25
Valence configuration for ps generation: (assumed as above)
For O, standard SIESTA heuristics set lmxkb to 3
 (one more than the basis l, including polarization orbitals).
Use PS.lmax or PS.KBprojectors blocks to override.
For H, standard SIESTA heuristics set lmxkb to 2
 (one more than the basis l, including polarization orbitals).
Use PS.lmax or PS.KBprojectors blocks to override.

<basis_specs>
===============================================================================
O                    Z=   8    Mass=  15.999        Charge= 0.17977+309
Lmxo=2 Lmxkb= 3    BasisType=split      Semic=F
L=0  Nsemic=0  Cnfigmx=2
          i=1  nzeta=1  polorb=0  (2s)
            splnorm:   0.15000    
               vcte:    40.000    
               rinn:  -0.90000    
               qcoe:    0.0000    
               qyuk:    0.0000    
               qwid:   0.10000E-01
                rcs:    0.0000    
            lambdas:    1.0000    
L=1  Nsemic=0  Cnfigmx=2
          i=1  nzeta=1  polorb=1  (2p)  (to be polarized perturbatively)
            splnorm:   0.15000    
               vcte:    40.000    
               rinn:  -0.90000    
               qcoe:    0.0000    
               qyuk:    0.0000    
               qwid:   0.10000E-01
                rcs:    0.0000    
            lambdas:    1.0000    
L=2  Nsemic=0  Cnfigmx=3
          i=1  nzeta=0  polorb=0  (3d)  (perturbative polarization orbital) (from 2p)
-------------------------------------------------------------------------------
L=0  Nkbl=1  erefs: 0.17977+309
L=1  Nkbl=1  erefs: 0.17977+309
L=2  Nkbl=1  erefs: 0.17977+309
L=3  Nkbl=1  erefs: 0.17977+309
===============================================================================
</basis_specs>

Using PAO.SplitTailNorm
atom: Called for O                     (Z =   8)
Maximum radius (at nrval) set to   50.00000 8518

read_vps: Pseudopotential generation method:
read_vps: ATM3      Troullier-Martins                       
Valence charge in pseudo generation:    6.00000

read_vps: Pseudopotential includes a core correction:
read_vps: Pseudo-core for xc-correction

xc_check: Exchange-correlation functional:
xc_check: GGA Perdew, Burke & Ernzerhof 1996
V l=0 = -2*Zval/r beyond r=  1.1355
V l=1 = -2*Zval/r beyond r=  1.1355
V l=2 = -2*Zval/r beyond r=  1.1309
V l=3 = -2*Zval/r beyond r=  1.1286
All V_l potentials equal beyond r=  1.1355
This should be close to max(r_c) in ps generation
All pots = -2*Zval/r beyond r=  1.1355
Using small-core scheme (local charge) for Vlocal

VLOCAL_FROM_CHLOCAL: 99.0% of the norm of Vloc inside     33.667 Ry
VLOCAL_FROM_CHLOCAL: 99.9% of the norm of Vloc inside     76.727 Ry
atom: Maximum radius for chlocal:    1.37241
atom: Maximum radius for r*vlocal+2*Zval:    1.25469

KBgen: Kleinman-Bylander projectors: 
GHOST: No ghost state for L =  0
   l= 0   rc=  1.357289   el= -1.759790   Ekb=  9.151830   kbcos=  0.327271
GHOST: No ghost state for L =  1
   l= 1   rc=  1.345038   el= -0.663797   Ekb= -7.991133   kbcos= -0.393963
GHOST: No ghost state for L =  2
   l= 2   rc=  1.779310   el=  0.012956   Ekb= -1.983219   kbcos= -0.003702
GHOST: No ghost state for L =  3
   l= 3   rc=  2.085579   el=  0.019231   Ekb= -0.873623   kbcos= -0.000360

KBgen: Total number of Kleinman-Bylander projectors:  16
atom: -------------------------------------------------------------------------

atom: SANKEY-TYPE ORBITALS:

SPLIT: Orbitals with angular momentum L= 0

SPLIT: Basis orbitals for state 2s

SPLIT: PAO cut-off radius determined from an
SPLIT: energy shift=  0.010000 Ry
Split based on tail norm

   izeta = 1
                 lambda =    1.000000
                     rc =    3.532490
                 energy =   -1.748682
                kinetic =    1.612754
    potential(screened) =   -3.361436
       potential(ionic) =  -11.306460

SPLIT: Orbitals with angular momentum L= 1

SPLIT: Basis orbitals for state 2p

SPLIT: PAO cut-off radius determined from an
SPLIT: energy shift=  0.010000 Ry
Split based on tail norm

   izeta = 1
                 lambda =    1.000000
                     rc =    4.299534
                 energy =   -0.652755
                kinetic =    4.913628
    potential(screened) =   -5.566382
       potential(ionic) =  -13.292903

POLgen: Perturbative polarization orbital with L=  2

POLgen: Polarization orbital for state 2p
Split based on tail norm

   izeta = 1
                     rc =    4.299534
                 energy =    2.258078
                kinetic =    4.298689
    potential(screened) =   -2.040611
       potential(ionic) =   -8.188336
atom: Total number of Sankey-type orbitals:  9

atm_pop: Valence configuration (for local Pseudopot. screening):
 2s( 2.00)                                                            
 2p( 4.00)                                                            
 3d( 0.00)                                                            
Vna: chval, zval:    6.00000   6.00000

Vna:  Cut-off radius for the neutral-atom potential:   4.299534
comcore: Pseudo-core radius Rcore=  1.364142

atom: _________________________________________________________________________

<basis_specs>
===============================================================================
H                    Z=   1    Mass=  1.0080        Charge= 0.17977+309
Lmxo=1 Lmxkb= 2    BasisType=split      Semic=F
L=0  Nsemic=0  Cnfigmx=1
          i=1  nzeta=1  polorb=1  (1s)  (to be polarized perturbatively)
            splnorm:   0.15000    
               vcte:    40.000    
               rinn:  -0.90000    
               qcoe:    0.0000    
               qyuk:    0.0000    
               qwid:   0.10000E-01
                rcs:    0.0000    
            lambdas:    1.0000    
L=1  Nsemic=0  Cnfigmx=2
          i=1  nzeta=0  polorb=0  (2p)  (perturbative polarization orbital) (from 1s)
-------------------------------------------------------------------------------
L=0  Nkbl=1  erefs: 0.17977+309
L=1  Nkbl=1  erefs: 0.17977+309
L=2  Nkbl=1  erefs: 0.17977+309
===============================================================================
</basis_specs>

Using PAO.SplitTailNorm
atom: Called for H                     (Z =   1)
Maximum radius (at nrval) set to   50.00000 8518

read_vps: Pseudopotential generation method:
read_vps: ATM3      Troullier-Martins                       
Valence charge in pseudo generation:    1.00000

xc_check: Exchange-correlation functional:
xc_check: GGA Perdew, Burke & Ernzerhof 1996
V l=0 = -2*Zval/r beyond r=  1.2384
V l=1 = -2*Zval/r beyond r=  1.2321
V l=2 = -2*Zval/r beyond r=  1.2235
All V_l potentials equal beyond r=  1.2371
This should be close to max(r_c) in ps generation
All pots = -2*Zval/r beyond r=  1.2384
Using small-core scheme (local charge) for Vlocal

VLOCAL_FROM_CHLOCAL: 99.0% of the norm of Vloc inside     28.363 Ry
VLOCAL_FROM_CHLOCAL: 99.9% of the norm of Vloc inside     64.639 Ry
atom: Maximum radius for chlocal:    1.44620
atom: Maximum radius for r*vlocal+2*Zval:    1.31026

KBgen: Kleinman-Bylander projectors: 
GHOST: No ghost state for L =  0
   l= 0   rc=  1.362769   el= -0.477200   Ekb= -2.026093   kbcos= -0.345051
GHOST: No ghost state for L =  1
   l= 1   rc=  1.431710   el=  0.007219   Ekb= -0.445752   kbcos= -0.023729
GHOST: No ghost state for L =  2
   l= 2   rc=  1.471166   el=  0.012944   Ekb= -0.141918   kbcos= -0.003041

KBgen: Total number of Kleinman-Bylander projectors:   9
atom: -------------------------------------------------------------------------

atom: SANKEY-TYPE ORBITALS:

SPLIT: Orbitals with angular momentum L= 0

SPLIT: Basis orbitals for state 1s

SPLIT: PAO cut-off radius determined from an
SPLIT: energy shift=  0.010000 Ry
Split based on tail norm

   izeta = 1
                 lambda =    1.000000
                     rc =    5.232664
                 energy =   -0.466073
                kinetic =    0.944036
    potential(screened) =   -1.410108
       potential(ionic) =   -1.935607

POLgen: Perturbative polarization orbital with L=  1

POLgen: Polarization orbital for state 1s
Split based on tail norm

   izeta = 1
                     rc =    5.232664
                 energy =    0.681103
                kinetic =    1.331928
    potential(screened) =   -0.650824
       potential(ionic) =   -1.138826
atom: Total number of Sankey-type orbitals:  4

atm_pop: Valence configuration (for local Pseudopot. screening):
 1s( 1.00)                                                            
 2p( 0.00)                                                            
Vna: chval, zval:    1.00000   1.00000

Vna:  Cut-off radius for the neutral-atom potential:   5.232664

atom: _________________________________________________________________________

prinput: Basis input 

PAO.BasisType split     

%block ChemicalSpeciesLabel
    1    8 O                       # Species index, atomic number, species label
    2    1 H                       # Species index, atomic number, species label
%endblock ChemicalSpeciesLabel

%block PAO.Basis                 # Define Basis set
# WARNING: This information might be incomplete!
O                     2                    # Species label, number of l-shells
 n=2   0   1                         # n, l, Nzeta 
   3.532   
   1.000   
 n=2   1   1 P   1                   # n, l, Nzeta, Polarization, NzetaPol
   4.300   
   1.000   
H                     1                    # Species label, number of l-shells
 n=1   0   1 P   1                   # n, l, Nzeta, Polarization, NzetaPol
   5.233   
   1.000   
%endblock PAO.Basis

prinput: ----------------------------------------------------------------------

Dumping basis to NetCDF file O.ion.nc
Dumping basis to NetCDF file H.ion.nc
coor:   Atomic-coordinates input format  =     Cartesian coordinates
coor:                                          (in Angstroms)

ioxv: Reading coordinates and velocities from file
! Info in XV file prevails over previous structure input
WARNING: xoc.VERLET_RESTART not found--reading only XV file and moving back 1 time step using Euler

siesta: Atomic coordinates (Bohr) and species
siesta:      2.54735  -0.00100  -0.00070  1        1
siesta:      5.01155  -0.00100  -0.00070  1        2
siesta:     12.64289   0.01600   0.01130  2        3
siesta:     14.01278   0.01600   0.01130  2        4

siesta: System type = chain     

initatomlists: Number of atoms, orbitals, and projectors:      4    26    50

coxmol: Writing XMOL coordinates into file xoc.xyz                                                                                                                                                                                                                             

siesta: ******************** Simulation parameters ****************************
siesta:
siesta: The following are some of the parameters of the simulation.
siesta: A complete list of the parameters used, including default values,
siesta: can be found in file out.fdf
siesta:
redata: Spin configuration                          = none
redata: Number of spin components                   = 1
redata: Time-Reversal Symmetry                      = T
redata: Spin spiral                                 = F
redata: Long output                                 =   F
redata: Number of Atomic Species                    =        2
redata: Charge density info will appear in .RHO file
redata: Write Mulliken charges (when)               = none
redata: Write Mulliken Pop.                         = NO
redata: Write Hirshfeld charges (when)              = none
redata: Write Voronoi charges (when)                = none
redata: Write spin charge (when)                    = none
redata: Matel table size (NRTAB)                    =     1024
redata: Mesh Cutoff                                 =   200.0000 Ry
redata: Net charge of the system                    =     0.0000 |e|
redata: Min. number of SCF Iter                     =        0
redata: Max. number of SCF Iter                     =      250
redata: SCF convergence failure will abort job
redata: SCF mix quantity                            = Hamiltonian
redata: Mix DM or H after convergence               =   F
redata: Recompute H after scf cycle                 =   F
redata: Mix DM in first SCF step                    =   T
redata: Write Pulay info on disk                    =   F
redata: New DM Occupancy tolerance                  = 0.000000000001
redata: No kicks to SCF
redata: DM Mixing Weight for Kicks                  =     0.5000
redata: Require Harris convergence for SCF          =   F
redata: Harris energy tolerance for SCF             =     0.000100 eV
redata: Require DM convergence for SCF              =   T
redata: DM tolerance for SCF                        =     0.000300
redata: Require EDM convergence for SCF             =   F
redata: EDM tolerance for SCF                       =     0.001000 eV
redata: Require H convergence for SCF               =   T
redata: Hamiltonian tolerance for SCF               =     0.001000 eV
redata: Require (free) Energy convergence for SCF   =   F
redata: (free) Energy tolerance for SCF             =     0.000100 eV
redata: Using DFT-D3 dispersion                     =   F
redata: Using Saved Data (generic)                  =   F
redata: Use continuation files for DM               =   T
redata: Neglect nonoverlap interactions             =   F
redata: Method of Calculation                       = Diagonalization
redata: Electronic Temperature                      =   290.1130 K
redata: Fix the spin of the system                  =   F
redata: Max. number of TDED Iter                    =        1
redata: Number of TDED substeps                     =        3
redata: Dynamics option                             = Verlet MD run
redata: Initial MD time step                        =        1
redata:   Final MD time step                        =      200
redata: Length of MD time step                      =     1.0000 fs
redata: Initial Temperature of MD run               =     0.0000 K
redata: Perform a MD quench                         =   F
mix.SCF: Pulay mixing                            = Pulay
mix.SCF:    Variant                              = stable
mix.SCF:    History steps                        = 6
mix.SCF:    Linear mixing weight                 =     0.020000
mix.SCF:    Mixing weight                        =     0.020000
mix.SCF:    SVD condition                        = 0.1000E-07
redata: Save all siesta data in one NC              =   F
redata: ***********************************************************************

%block SCF.Mixers
  Pulay
%endblock SCF.Mixers

%block SCF.Mixer.Pulay
  # Mixing method
  method pulay
  variant stable

  # Mixing options
  weight 0.0200
  weight.linear 0.0200
  history 6
%endblock SCF.Mixer.Pulay

Size of DM history Fstack: 1
Total number of electrons:    14.000000
Total ionic charge:    14.000000
 Kpoints in:            1 . Kpoints trimmed:            1

siesta: k-grid: Number of k-points = 1
siesta: k-points from Monkhorst-Pack grid
siesta: k-cutoff (effective) =     5.000 Ang
siesta: k-point supercell and displacements
siesta: k-grid:     1     0     0      0.000
siesta: k-grid:     0     1     0      0.000
siesta: k-grid:     0     0     1      0.000

diag: Algorithm                                     = D&C
diag: Used triangular part                          = Lower
diag: Absolute tolerance                            =  0.100E-15
diag: Orthogonalization factor                      =  0.100E-05
diag: Memory factor                                 =  1.0000


ts: **************************************************************
ts: Save H and S matrices                           =    F
ts: Save DM and EDM matrices                        =    F
ts: Only save the overlap matrix S                  =    F
ts: **************************************************************

************************ Begin: TS CHECKS AND WARNINGS ************************
************************ End: TS CHECKS AND WARNINGS **************************


                     ====================================
                        Begin MD step =      1
                     ====================================

outcell: Unit cell vectors (Ang):
       10.000004    0.000000    0.000000
        0.000000   10.000004    0.000000
        0.000000    0.000000   10.000004

outcell: Cell vector modules (Ang)   :   10.000004   10.000004   10.000004
outcell: Cell angles (23,13,12) (deg):     90.0000     90.0000     90.0000
outcell: Cell volume (Ang**3)        :   1000.0012
<dSpData1D:S at geom step 1
  <sparsity:sparsity for geom step 1
    nrows_g=26 nrows=26 sparsity=.9763 nnzs=660, refcount: 7>
  <dData1D:(new from dSpData1D) n=660, refcount: 1>
refcount: 1>
new_DM -- step:     1
Initializing Density Matrix...

Attempting to read DM from file... Failed...
DM filled with atomic data:
<dSpData2D:DM initialized from atoms
  <sparsity:sparsity for geom step 1
    nrows_g=26 nrows=26 sparsity=.9763 nnzs=660, refcount: 8>
  <dData2D:DM n=660 m=1, refcount: 1>
refcount: 1>
No. of atoms with KB's overlaping orbs in proc 0. Max # of overlaps:       4      18

InitMesh: MESH = 90 x 90 x 90 = 729000
InitMesh: Mesh cutoff (required, used) =   200.000   223.865 Ry
New grid distribution [1]: sub = 2

stepf: Fermi-Dirac step function

siesta: Program's energy decomposition (eV):
siesta: Ebs     =      -210.134899
siesta: Eions   =      1581.702395
siesta: Ena     =       338.517813
siesta: Ekin    =       624.688199
siesta: Enl     =       -90.877891
siesta: Eso     =         0.000000
siesta: Edftu   =         0.000000
siesta: DEna    =        14.301430
siesta: DUscf   =         1.601058
siesta: DUext   =         0.000000
siesta: Ex      =      -190.532792
siesta: Ec      =       -13.817069
siesta: Exc     =      -204.349861
siesta: EbV     =         0.000000
siesta: eta*DQ  =         0.000000
siesta: Emadel  =         0.000000
siesta: Emeta   =         0.000000
siesta: Emolmec =         0.000000
siesta: Ekinion =         0.000000
siesta: Eharris =      -900.236978
siesta: Etot    =      -897.821646
siesta: FreeEng =      -897.890961

        iscf     Eharris(eV)        E_KS(eV)     FreeEng(eV)     dDmax    Ef(eV) dHmax(eV)
   scf:    1     -900.236978     -897.821646     -897.890961  0.774905 -4.685368  2.420560
timer: Routine,Calls,Time,% = IterSCF        1       0.590  28.93
   scf:    2     -897.859601     -897.840681     -897.909996  0.001843 -4.717949  2.354811
   scf:    3     -898.282427     -898.125687     -898.195002  0.064605 -5.796527  0.201823
   scf:    4     -898.124587     -898.126694     -898.196009  0.009652 -5.705774  0.390159
   scf:    5     -898.131325     -898.129299     -898.198614  0.007292 -5.906113  0.012839
   scf:    6     -898.129286     -898.129295     -898.198609  0.000254 -5.904159  0.015078
mix: Pulay -- inversion failed, > SVD [rank/size] 4 / 5
   scf:    7     -898.129305     -898.129300     -898.198614  0.000074 -5.905223  0.012915
   scf:    8     -898.129323     -898.129313     -898.198628  0.000402 -5.907310  0.001799
   scf:    9     -898.129314     -898.129314     -898.198629  0.000353 -5.907809  0.000298
   scf:   10     -898.129314     -898.129314     -898.198629  0.000010 -5.907708  0.000077

SCF Convergence by DM+H criterion
max |DM_out - DM_in|         :     0.0000097988
max |H_out - H_in|      (eV) :     0.0000773809
SCF cycle converged after 10 iterations

Using DM_out to compute the final energy and forces
No. of atoms with KB's overlaping orbs in proc 0. Max # of overlaps:       4      18

siesta: E_KS(eV) =             -898.1293

siesta: E_KS - E_eggbox =      -898.1293

siesta: Atomic forces (eV/Ang):
----------------------------------------
   Tot   -0.000834    0.001555    0.001114
----------------------------------------
   Max    5.157159
   Res    2.105094    sqrt( Sum f_i^2 / 3N )
----------------------------------------
   Max    5.157159    constrained

Stress tensor Voigt[x,y,z,yz,xz,xy] (kbar):       -6.97       -0.41       -0.25       -0.10       -0.04        0.19
(Free)E + p*V (eV/cell)     -896.6106
Target enthalpy (eV/cell)     -898.1986

siesta: Stress tensor (static) (eV/Ang**3):
        -0.003696   -0.000000   -0.000000
        -0.000000    0.000006    0.000000
        -0.000000    0.000000    0.000006

siesta: Pressure (static):          1.96717442  kBar

siesta: Stress tensor (total) (eV/Ang**3):
        -0.004351    0.000121   -0.000024
         0.000121   -0.000259   -0.000060
        -0.000024   -0.000060   -0.000154

siesta: Pressure (total):          2.54431446  kBar

siesta: Temp_ion =    1393.404 K

                     ====================================
                        Begin MD step =      2
                     ====================================

outcell: Unit cell vectors (Ang):
       10.000004    0.000000    0.000000
        0.000000   10.000004    0.000000
        0.000000    0.000000   10.000004

outcell: Cell vector modules (Ang)   :   10.000004   10.000004   10.000004
outcell: Cell angles (23,13,12) (deg):     90.0000     90.0000     90.0000
outcell: Cell volume (Ang**3)        :   1000.0012
<dSpData1D:S at geom step 2
  <sparsity:sparsity for geom step 2
    nrows_g=26 nrows=26 sparsity=.9763 nnzs=660, refcount: 7>
  <dData1D:(new from dSpData1D) n=660, refcount: 1>
refcount: 1>
new_DM -- step:     2
Re-using DM from previous geometries...
Number of DMs in history: 1
 DM extrapolation coefficients: 
1   1.00000
New DM after history re-use:
<dSpData2D:SpM extrapolated using coords
  <sparsity:sparsity for geom step 2
    nrows_g=26 nrows=26 sparsity=.9763 nnzs=660, refcount: 9>
  <dData2D:(temp array for extrapolation) n=660 m=1, refcount: 1>
refcount: 1>
Note: For starting DM, Qtot, Tr[D*S] =         14.00000000         13.97902473
No. of atoms with KB's overlaping orbs in proc 0. Max # of overlaps:       4      18

InitMesh: MESH = 90 x 90 x 90 = 729000
InitMesh: Mesh cutoff (required, used) =   200.000   223.865 Ry
New grid distribution [1]: sub = 2

        iscf     Eharris(eV)        E_KS(eV)     FreeEng(eV)     dDmax    Ef(eV) dHmax(eV)
   scf:    1     -898.107283     -898.328115     -898.397430  0.012560 -5.642194  0.270512
   scf:    2     -898.327997     -898.328688     -898.397994  0.010184 -5.892371  0.078288
   scf:    3     -898.329469     -898.329114     -898.398426  0.003634 -5.840584  0.035820
   scf:    4     -898.328839     -898.329108     -898.398414  0.012360 -5.848309  0.024516
   scf:    5     -898.329174     -898.329224     -898.398539  0.009817 -5.856047  0.019022
   scf:    6     -898.329235     -898.329233     -898.398547  0.000588 -5.868853  0.010483
   scf:    7     -898.329256     -898.329252     -898.398567  0.002602 -5.864618  0.001009
   scf:    8     -898.329252     -898.329252     -898.398567  0.000176 -5.865177  0.000223

SCF Convergence by DM+H criterion
max |DM_out - DM_in|         :     0.0001756772
max |H_out - H_in|      (eV) :     0.0002229463
SCF cycle converged after 8 iterations

Using DM_out to compute the final energy and forces
No. of atoms with KB's overlaping orbs in proc 0. Max # of overlaps:       4      18

siesta: E_KS(eV) =             -898.3293

siesta: Atomic forces (eV/Ang):
----------------------------------------
   Tot    0.000698    0.000170    0.000168
----------------------------------------
   Max    2.719528
   Res    1.134545    sqrt( Sum f_i^2 / 3N )
----------------------------------------
   Max    2.719528    constrained

Stress tensor Voigt[x,y,z,yz,xz,xy] (kbar):       -5.45       -0.42       -0.26       -0.11       -0.27        0.03
(Free)E + p*V (eV/cell)     -897.1223
Target enthalpy (eV/cell)     -898.3986

siesta: Stress tensor (static) (eV/Ang**3):
        -0.002745   -0.000104   -0.000145
        -0.000104    0.000001   -0.000007
        -0.000145   -0.000007   -0.000004

siesta: Pressure (static):          1.46771015  kBar

siesta: Stress tensor (total) (eV/Ang**3):
        -0.003401    0.000017   -0.000169
         0.000017   -0.000264   -0.000066
        -0.000169   -0.000066   -0.000164

siesta: Pressure (total):          2.04485020  kBar

siesta: Temp_ion =    1789.117 K

                     ====================================
                        Begin MD step =      3
                     ====================================

outcell: Unit cell vectors (Ang):
       10.000004    0.000000    0.000000
        0.000000   10.000004    0.000000
        0.000000    0.000000   10.000004

outcell: Cell vector modules (Ang)   :   10.000004   10.000004   10.000004
outcell: Cell angles (23,13,12) (deg):     90.0000     90.0000     90.0000
outcell: Cell volume (Ang**3)        :   1000.0012
Gamma-point calculation with multiply-connected orbital pairs
Gamma-point calculation with multiply-connected orbital pairs
Folding of H and S implicitly performed
Folding of H and S implicitly performed
<dSpData1D:S at geom step 3
  <sparsity:sparsity for geom step 3
    nrows_g=26 nrows=26 sparsity=.9882 nnzs=668, refcount: 7>
  <dData1D:(new from dSpData1D) n=668, refcount: 1>
refcount: 1>
new_DM -- step:     3
Re-using DM from previous geometries...
Number of DMs in history: 1
 DM extrapolation coefficients: 
1   1.00000
New DM after history re-use:
<dSpData2D:SpM extrapolated using coords
  <sparsity:sparsity for geom step 3
    nrows_g=26 nrows=26 sparsity=.9882 nnzs=668, refcount: 9>
  <dData2D:(temp array for extrapolation) n=668 m=1, refcount: 1>
refcount: 1>
Note: For starting DM, Qtot, Tr[D*S] =         14.00000000         13.94831652
No. of atoms with KB's overlaping orbs in proc 0. Max # of overlaps:       4      22

InitMesh: MESH = 90 x 90 x 90 = 729000
InitMesh: Mesh cutoff (required, used) =   200.000   223.865 Ry
New grid distribution [1]: sub = 2

        iscf     Eharris(eV)        E_KS(eV)     FreeEng(eV)     dDmax    Ef(eV) dHmax(eV)
   scf:    1     -898.076379     -898.418139     -898.487453  0.024168 -5.313696  0.598330
   scf:    2     -898.414920     -898.418746     -898.487953  0.028873 -5.873746  0.136707
   scf:    3     -898.421635     -898.420330     -898.489603  0.010250 -5.784236  0.071804
   scf:    4     -898.419538     -898.420719     -898.490009  0.029006 -5.794782  0.054362
   scf:    5     -898.421066     -898.421144     -898.490457  0.015256 -5.808884  0.032339
   scf:    6     -898.421217     -898.421194     -898.490509  0.001708 -5.842308  0.026264
   scf:    7     -898.421270     -898.421243     -898.490557  0.000885 -5.825268  0.002563
   scf:    8     -898.421241     -898.421242     -898.490557  0.000560 -5.826480  0.001449
   scf:    9     -898.421242     -898.421242     -898.490557  0.000032 -5.827181  0.000709

SCF Convergence by DM+H criterion
max |DM_out - DM_in|         :     0.0000319829
max |H_out - H_in|      (eV) :     0.0007092841
SCF cycle converged after 9 iterations

Using DM_out to compute the final energy and forces
No. of atoms with KB's overlaping orbs in proc 0. Max # of overlaps:       4      22

siesta: E_KS(eV) =             -898.4212

siesta: Atomic forces (eV/Ang):
----------------------------------------
   Tot   -0.000055    0.000220    0.000305
----------------------------------------
   Max    1.036132
   Res    0.489140    sqrt( Sum f_i^2 / 3N )
----------------------------------------
   Max    1.036132    constrained

Stress tensor Voigt[x,y,z,yz,xz,xy] (kbar):       -2.72       -0.42       -0.25       -0.10       -0.27       -0.02
(Free)E + p*V (eV/cell)     -897.7852
Target enthalpy (eV/cell)     -898.4906

siesta: Stress tensor (static) (eV/Ang**3):
        -0.000751    0.000011    0.000073
         0.000012    0.000008    0.000006
         0.000073    0.000006    0.000014

siesta: Pressure (static):          0.38905157  kBar

siesta: Stress tensor (total) (eV/Ang**3):
        -0.001699   -0.000015   -0.000169
        -0.000015   -0.000262   -0.000061
        -0.000169   -0.000061   -0.000156

siesta: Pressure (total):          1.13009354  kBar

siesta: Temp_ion =    2018.714 K

                     ====================================
                        Begin MD step =      4
                     ====================================

outcell: Unit cell vectors (Ang):
       10.000004    0.000000    0.000000
        0.000000   10.000004    0.000000
        0.000000    0.000000   10.000004

outcell: Cell vector modules (Ang)   :   10.000004   10.000004   10.000004
outcell: Cell angles (23,13,12) (deg):     90.0000     90.0000     90.0000
outcell: Cell volume (Ang**3)        :   1000.0012
Gamma-point calculation with multiply-connected orbital pairs
Gamma-point calculation with multiply-connected orbital pairs
Folding of H and S implicitly performed
Folding of H and S implicitly performed
<dSpData1D:S at geom step 4
  <sparsity:sparsity for geom step 4
    nrows_g=26 nrows=26 sparsity=.9882 nnzs=668, refcount: 7>
  <dData1D:(new from dSpData1D) n=668, refcount: 1>
refcount: 1>
new_DM -- step:     4
Re-using DM from previous geometries...
Number of DMs in history: 1
 DM extrapolation coefficients: 
1   1.00000
New DM after history re-use:
<dSpData2D:SpM extrapolated using coords
  <sparsity:sparsity for geom step 4
    nrows_g=26 nrows=26 sparsity=.9882 nnzs=668, refcount: 9>
  <dData2D:(temp array for extrapolation) n=668 m=1, refcount: 1>
refcount: 1>
Note: For starting DM, Qtot, Tr[D*S] =         14.00000000         13.94467711
No. of atoms with KB's overlaping orbs in proc 0. Max # of overlaps:       4      22

InitMesh: MESH = 90 x 90 x 90 = 729000
InitMesh: Mesh cutoff (required, used) =   200.000   223.865 Ry
New grid distribution [1]: sub = 2

        iscf     Eharris(eV)        E_KS(eV)     FreeEng(eV)     dDmax    Ef(eV) dHmax(eV)
   scf:    1     -897.881750     -898.253253     -898.322561  0.021675 -5.249018  0.637648
   scf:    2     -898.219719     -898.244361     -898.312762  0.088844 -5.842934  0.232341
   scf:    3     -898.257733     -898.251886     -898.320853  0.030815 -5.747224  0.126985
   scf:    4     -898.254361     -898.256024     -898.325327  0.058436 -5.761324  0.063492
   scf:    5     -898.255412     -898.256159     -898.325454  0.022032 -5.767948  0.048351
   scf:    6     -898.256448     -898.256368     -898.325681  0.008640 -5.776624  0.034960
   scf:    7     -898.256548     -898.256486     -898.325801  0.002395 -5.793629  0.003454
   scf:    8     -898.256489     -898.256489     -898.325804  0.001260 -5.794968  0.002240
   scf:    9     -898.256487     -898.256489     -898.325803  0.000710 -5.795335  0.001263
   scf:   10     -898.256489     -898.256489     -898.325803  0.000058 -5.795430  0.000945

SCF Convergence by DM+H criterion
max |DM_out - DM_in|         :     0.0000578048
max |H_out - H_in|      (eV) :     0.0009454251
SCF cycle converged after 10 iterations

Using DM_out to compute the final energy and forces
No. of atoms with KB's overlaping orbs in proc 0. Max # of overlaps:       4      22

siesta: E_KS(eV) =             -898.2565

siesta: Atomic forces (eV/Ang):
----------------------------------------
   Tot   -0.000406    0.000226    0.000227
----------------------------------------
   Max    2.304538
   Res    1.132410    sqrt( Sum f_i^2 / 3N )
----------------------------------------
   Max    2.304538    constrained

Stress tensor Voigt[x,y,z,yz,xz,xy] (kbar):       -1.13       -0.39       -0.17       -0.04        0.15        0.17
(Free)E + p*V (eV/cell)     -897.9761
Target enthalpy (eV/cell)     -898.3258

siesta: Stress tensor (static) (eV/Ang**3):
         0.000413    0.000184    0.000399
         0.000184    0.000030    0.000044
         0.000399    0.000044    0.000073

siesta: Pressure (static):         -0.27578751  kBar

siesta: Stress tensor (total) (eV/Ang**3):
        -0.000703    0.000103    0.000095
         0.000103   -0.000243   -0.000026
         0.000095   -0.000026   -0.000104

siesta: Pressure (total):          0.56035223  kBar

siesta: Temp_ion =    1644.070 K

                     ====================================
                        Begin MD step =      5
                     ====================================

outcell: Unit cell vectors (Ang):
       10.000004    0.000000    0.000000
        0.000000   10.000004    0.000000
        0.000000    0.000000   10.000004

outcell: Cell vector modules (Ang)   :   10.000004   10.000004   10.000004
outcell: Cell angles (23,13,12) (deg):     90.0000     90.0000     90.0000
outcell: Cell volume (Ang**3)        :   1000.0012
Gamma-point calculation with multiply-connected orbital pairs
Gamma-point calculation with multiply-connected orbital pairs
Folding of H and S implicitly performed
Folding of H and S implicitly performed
<dSpData1D:S at geom step 5
  <sparsity:sparsity for geom step 5
    nrows_g=26 nrows=26 sparsity=.9882 nnzs=668, refcount: 7>
  <dData1D:(new from dSpData1D) n=668, refcount: 1>
refcount: 1>
new_DM -- step:     5
Re-using DM from previous geometries...
Number of DMs in history: 1
 DM extrapolation coefficients: 
1   1.00000
New DM after history re-use:
<dSpData2D:SpM extrapolated using coords
  <sparsity:sparsity for geom step 5
    nrows_g=26 nrows=26 sparsity=.9882 nnzs=668, refcount: 9>
  <dData2D:(temp array for extrapolation) n=668 m=1, refcount: 1>
refcount: 1>
Note: For starting DM, Qtot, Tr[D*S] =         14.00000000         13.96570782
No. of atoms with KB's overlaping orbs in proc 0. Max # of overlaps:       4      22

InitMesh: MESH = 90 x 90 x 90 = 729000
InitMesh: Mesh cutoff (required, used) =   200.000   223.865 Ry
New grid distribution [1]: sub = 2

        iscf     Eharris(eV)        E_KS(eV)     FreeEng(eV)     dDmax    Ef(eV) dHmax(eV)
   scf:    1     -897.839668     -898.092357     -898.161664  0.012592 -5.432270  0.401591
   scf:    2     -898.053511     -898.080838     -898.149118  0.090628 -5.802335  0.138623
   scf:    3     -898.095402     -898.089138     -898.158084  0.033625 -5.733880  0.082624
   scf:    4     -898.092493     -898.093538     -898.162848  0.055567 -5.749920  0.041884
   scf:    5     -898.092821     -898.093475     -898.162770  0.017112 -5.750795  0.026699
   scf:    6     -898.093766     -898.093657     -898.162969  0.006482 -5.756194  0.023639
   scf:    7     -898.093781     -898.093746     -898.163060  0.004176 -5.770864  0.001324
   scf:    8     -898.093746     -898.093747     -898.163061  0.000758 -5.771522  0.001321
   scf:    9     -898.093746     -898.093747     -898.163061  0.000482 -5.771744  0.001099
   scf:   10     -898.093746     -898.093747     -898.163061  0.000027 -5.771800  0.001010
   scf:   11     -898.093747     -898.093747     -898.163061  0.000263 -5.772171  0.000097

SCF Convergence by DM+H criterion
max |DM_out - DM_in|         :     0.0002629624
max |H_out - H_in|      (eV) :     0.0000968316
SCF cycle converged after 11 iterations

Using DM_out to compute the final energy and forces
No. of atoms with KB's overlaping orbs in proc 0. Max # of overlaps:       4      22

siesta: E_KS(eV) =             -898.0937

siesta: Atomic forces (eV/Ang):
----------------------------------------
   Tot    0.000039    0.000432    0.000174
----------------------------------------
   Max    2.893373
   Res    1.421020    sqrt( Sum f_i^2 / 3N )
----------------------------------------
   Max    2.893373    constrained

Stress tensor Voigt[x,y,z,yz,xz,xy] (kbar):       -0.22       -0.33       -0.02        0.06        0.71        0.42
(Free)E + p*V (eV/cell)     -898.0447
Target enthalpy (eV/cell)     -898.1631

siesta: Stress tensor (static) (eV/Ang**3):
         0.000726    0.000297    0.000646
         0.000297    0.000055    0.000088
         0.000646    0.000088    0.000139

siesta: Pressure (static):         -0.49137846  kBar

siesta: Stress tensor (total) (eV/Ang**3):
        -0.000136    0.000262    0.000444
         0.000262   -0.000208    0.000035
         0.000444    0.000035   -0.000011

siesta: Pressure (total):          0.18958563  kBar

siesta: Temp_ion =    1247.727 K

                     ====================================
                        Begin MD step =      6
                     ====================================

outcell: Unit cell vectors (Ang):
       10.000004    0.000000    0.000000
        0.000000   10.000004    0.000000
        0.000000    0.000000   10.000004

outcell: Cell vector modules (Ang)   :   10.000004   10.000004   10.000004
outcell: Cell angles (23,13,12) (deg):     90.0000     90.0000     90.0000
outcell: Cell volume (Ang**3)        :   1000.0012
<dSpData1D:S at geom step 6
  <sparsity:sparsity for geom step 6
    nrows_g=26 nrows=26 sparsity=.9882 nnzs=668, refcount: 7>
  <dData1D:(new from dSpData1D) n=668, refcount: 1>
refcount: 1>
new_DM -- step:     6
Re-using DM from previous geometries...
Number of DMs in history: 1
 DM extrapolation coefficients: 
1   1.00000
New DM after history re-use:
<dSpData2D:SpM extrapolated using coords
  <sparsity:sparsity for geom step 6
    nrows_g=26 nrows=26 sparsity=.9882 nnzs=668, refcount: 9>
  <dData2D:(temp array for extrapolation) n=668 m=1, refcount: 1>
refcount: 1>
No. of atoms with KB's overlaping orbs in proc 0. Max # of overlaps:       4      22

InitMesh: MESH = 90 x 90 x 90 = 729000
InitMesh: Mesh cutoff (required, used) =   200.000   223.865 Ry
New grid distribution [1]: sub = 2

        iscf     Eharris(eV)        E_KS(eV)     FreeEng(eV)     dDmax    Ef(eV) dHmax(eV)
   scf:    1     -898.029903     -898.081396     -898.150711  0.012687 -5.738286  0.031085
   scf:    2     -898.080148     -898.081029     -898.150312  0.015203 -5.762525  0.040533
   scf:    3     -898.081580     -898.081377     -898.150686  0.008180 -5.752648  0.019549
   scf:    4     -898.081411     -898.081441     -898.150756  0.006744 -5.755248  0.008442
   scf:    5     -898.081447     -898.081446     -898.150761  0.001277 -5.756216  0.002117
   scf:    6     -898.081446     -898.081446     -898.150761  0.000091 -5.756375  0.002118
   scf:    7     -898.081447     -898.081447     -898.150761  0.000093 -5.758018  0.000168

SCF Convergence by DM+H criterion
max |DM_out - DM_in|         :     0.0000926785
max |H_out - H_in|      (eV) :     0.0001684256
SCF cycle converged after 7 iterations

Using DM_out to compute the final energy and forces
No. of atoms with KB's overlaping orbs in proc 0. Max # of overlaps:       4      22

siesta: E_KS(eV) =             -898.0814

siesta: Atomic forces (eV/Ang):
----------------------------------------
   Tot   -0.000184   -0.000145    0.000106
----------------------------------------
   Max    2.885810
   Res    1.467186    sqrt( Sum f_i^2 / 3N )
----------------------------------------
   Max    2.885810    constrained

Stress tensor Voigt[x,y,z,yz,xz,xy] (kbar):       -0.21       -0.28        0.14        0.16        1.13        0.57
(Free)E + p*V (eV/cell)     -898.0776
Target enthalpy (eV/cell)     -898.1508

siesta: Stress tensor (static) (eV/Ang**3):
         0.000488    0.000324    0.000757
         0.000324    0.000071    0.000122
         0.000757    0.000122    0.000189

siesta: Pressure (static):         -0.39964290  kBar

siesta: Stress tensor (total) (eV/Ang**3):
        -0.000133    0.000358    0.000705
         0.000358   -0.000173    0.000101
         0.000705    0.000101    0.000087

siesta: Pressure (total):          0.11715850  kBar

siesta: Temp_ion =    1217.246 K

                     ====================================
                        Begin MD step =      7
                     ====================================

outcell: Unit cell vectors (Ang):
       10.000004    0.000000    0.000000
        0.000000   10.000004    0.000000
        0.000000    0.000000   10.000004

outcell: Cell vector modules (Ang)   :   10.000004   10.000004   10.000004
outcell: Cell angles (23,13,12) (deg):     90.0000     90.0000     90.0000
outcell: Cell volume (Ang**3)        :   1000.0012
<dSpData1D:S at geom step 7
  <sparsity:sparsity for geom step 7
    nrows_g=26 nrows=26 sparsity=1.0000 nnzs=676, refcount: 7>
  <dData1D:(new from dSpData1D) n=676, refcount: 1>
refcount: 1>
new_DM -- step:     7
Re-using DM from previous geometries...
Number of DMs in history: 1
 DM extrapolation coefficients: 
1   1.00000
New DM after history re-use:
<dSpData2D:SpM extrapolated using coords
  <sparsity:sparsity for geom step 7
    nrows_g=26 nrows=26 sparsity=1.0000 nnzs=676, refcount: 9>
  <dData2D:(temp array for extrapolation) n=676 m=1, refcount: 1>
refcount: 1>
Note: For starting DM, Qtot, Tr[D*S] =         14.00000000         14.03231715
No. of atoms with KB's overlaping orbs in proc 0. Max # of overlaps:       4      22

InitMesh: MESH = 90 x 90 x 90 = 729000
InitMesh: Mesh cutoff (required, used) =   200.000   223.865 Ry
New grid distribution [1]: sub = 2

        iscf     Eharris(eV)        E_KS(eV)     FreeEng(eV)     dDmax    Ef(eV) dHmax(eV)
   scf:    1     -898.377519     -898.226463     -898.295778  0.012932 -6.067305  0.360489
   scf:    2     -898.225719     -898.226592     -898.295890  0.009995 -5.732252  0.094115
   scf:    3     -898.227190     -898.226915     -898.296222  0.003322 -5.775690  0.052908
   scf:    4     -898.226650     -898.227023     -898.296328  0.012975 -5.767958  0.024974
   scf:    5     -898.227091     -898.227154     -898.296468  0.008861 -5.763839  0.019432
   scf:    6     -898.227209     -898.227190     -898.296505  0.001670 -5.760792  0.010671
   scf:    7     -898.227192     -898.227192     -898.296506  0.000201 -5.755297  0.001267
   scf:    8     -898.227191     -898.227192     -898.296506  0.000294 -5.754758  0.000477

SCF Convergence by DM+H criterion
max |DM_out - DM_in|         :     0.0002944687
max |H_out - H_in|      (eV) :     0.0004765613
SCF cycle converged after 8 iterations

Using DM_out to compute the final energy and forces
No. of atoms with KB's overlaping orbs in proc 0. Max # of overlaps:       4      22

siesta: E_KS(eV) =             -898.2272

siesta: Atomic forces (eV/Ang):
----------------------------------------
   Tot    0.001312    0.000161   -0.000045
----------------------------------------
   Max    2.314412
   Res    1.280684    sqrt( Sum f_i^2 / 3N )
----------------------------------------
   Max    2.314412    constrained

Stress tensor Voigt[x,y,z,yz,xz,xy] (kbar):       -1.42       -0.25        0.22        0.22        1.16        0.48
(Free)E + p*V (eV/cell)     -897.9942
Target enthalpy (eV/cell)     -898.2965

siesta: Stress tensor (static) (eV/Ang**3):
        -0.000223    0.000233    0.000671
         0.000233    0.000067    0.000125
         0.000671    0.000125    0.000192

siesta: Pressure (static):         -0.01985614  kBar

siesta: Stress tensor (total) (eV/Ang**3):
        -0.000886    0.000302    0.000723
         0.000302   -0.000159    0.000136
         0.000723    0.000136    0.000138

siesta: Pressure (total):          0.48431998  kBar

siesta: Temp_ion =    1572.745 K

                     ====================================
                        Begin MD step =      8
                     ====================================

outcell: Unit cell vectors (Ang):
       10.000004    0.000000    0.000000
        0.000000   10.000004    0.000000
        0.000000    0.000000   10.000004

outcell: Cell vector modules (Ang)   :   10.000004   10.000004   10.000004
outcell: Cell angles (23,13,12) (deg):     90.0000     90.0000     90.0000
outcell: Cell volume (Ang**3)        :   1000.0012
<dSpData1D:S at geom step 8
  <sparsity:sparsity for geom step 8
    nrows_g=26 nrows=26 sparsity=1.0000 nnzs=676, refcount: 7>
  <dData1D:(new from dSpData1D) n=676, refcount: 1>
refcount: 1>
new_DM -- step:     8
Re-using DM from previous geometries...
Number of DMs in history: 1
 DM extrapolation coefficients: 
1   1.00000
New DM after history re-use:
<dSpData2D:SpM extrapolated using coords
  <sparsity:sparsity for geom step 8
    nrows_g=26 nrows=26 sparsity=1.0000 nnzs=676, refcount: 9>
  <dData2D:(temp array for extrapolation) n=676 m=1, refcount: 1>
refcount: 1>
Note: For starting DM, Qtot, Tr[D*S] =         14.00000000         14.05733858
No. of atoms with KB's overlaping orbs in proc 0. Max # of overlaps:       4      22

InitMesh: MESH = 90 x 90 x 90 = 729000
InitMesh: Mesh cutoff (required, used) =   200.000   223.865 Ry
New grid distribution [1]: sub = 2

        iscf     Eharris(eV)        E_KS(eV)     FreeEng(eV)     dDmax    Ef(eV) dHmax(eV)
   scf:    1     -898.681968     -898.397218     -898.466531  0.021063 -6.319877  0.655639
   scf:    2     -898.384329     -898.394512     -898.463550  0.050850 -5.719445  0.243310
   scf:    3     -898.400151     -898.397628     -898.466835  0.016848 -5.809154  0.148844
   scf:    4     -898.395750     -898.398866     -898.468115  0.048022 -5.791794  0.059464
   scf:    5     -898.399443     -898.399730     -898.469043  0.024784 -5.779434  0.039662
   scf:    6     -898.399500     -898.399727     -898.469033  0.010748 -5.791020  0.040297
   scf:    7     -898.399929     -898.399881     -898.469195  0.006752 -5.763980  0.002919
   scf:    8     -898.399881     -898.399881     -898.469196  0.000297 -5.763333  0.001701
   scf:    9     -898.399880     -898.399881     -898.469195  0.000621 -5.762419  0.000897
   scf:   10     -898.399881     -898.399881     -898.469196  0.000396 -5.762379  0.000900
   scf:   11     -898.399881     -898.399881     -898.469196  0.000081 -5.762330  0.000808

SCF Convergence by DM+H criterion
max |DM_out - DM_in|         :     0.0000806469
max |H_out - H_in|      (eV) :     0.0008084130
SCF cycle converged after 11 iterations

Using DM_out to compute the final energy and forces
No. of atoms with KB's overlaping orbs in proc 0. Max # of overlaps:       4      22

siesta: E_KS(eV) =             -898.3999

siesta: Atomic forces (eV/Ang):
----------------------------------------
   Tot    0.002442    0.000208   -0.000321
----------------------------------------
   Max    1.790503
   Res    0.805914    sqrt( Sum f_i^2 / 3N )
----------------------------------------
   Max    1.790503    constrained

Stress tensor Voigt[x,y,z,yz,xz,xy] (kbar):       -4.01       -0.32        0.10        0.14        0.53       -0.00
(Free)E + p*V (eV/cell)     -897.5881
Target enthalpy (eV/cell)     -898.4692

siesta: Stress tensor (static) (eV/Ang**3):
        -0.001522   -0.000051    0.000259
        -0.000051    0.000016    0.000053
         0.000259    0.000053    0.000082

siesta: Pressure (static):          0.76032480  kBar

siesta: Stress tensor (total) (eV/Ang**3):
        -0.002502   -0.000002    0.000333
        -0.000002   -0.000201    0.000086
         0.000333    0.000086    0.000060

siesta: Pressure (total):          1.41174675  kBar

siesta: Temp_ion =    1969.232 K

                     ====================================
                        Begin MD step =      9
                     ====================================

outcell: Unit cell vectors (Ang):
       10.000004    0.000000    0.000000
        0.000000   10.000004    0.000000
        0.000000    0.000000   10.000004

outcell: Cell vector modules (Ang)   :   10.000004   10.000004   10.000004
outcell: Cell angles (23,13,12) (deg):     90.0000     90.0000     90.0000
outcell: Cell volume (Ang**3)        :   1000.0012
<dSpData1D:S at geom step 9
  <sparsity:sparsity for geom step 9
    nrows_g=26 nrows=26 sparsity=1.0000 nnzs=676, refcount: 7>
  <dData1D:(new from dSpData1D) n=676, refcount: 1>
refcount: 1>
new_DM -- step:     9
Re-using DM from previous geometries...
Number of DMs in history: 1
 DM extrapolation coefficients: 
1   1.00000
New DM after history re-use:
<dSpData2D:SpM extrapolated using coords
  <sparsity:sparsity for geom step 9
    nrows_g=26 nrows=26 sparsity=1.0000 nnzs=676, refcount: 9>
  <dData2D:(temp array for extrapolation) n=676 m=1, refcount: 1>
refcount: 1>
Note: For starting DM, Qtot, Tr[D*S] =         14.00000000         14.05845199
No. of atoms with KB's overlaping orbs in proc 0. Max # of overlaps:       4      22

InitMesh: MESH = 90 x 90 x 90 = 729000
InitMesh: Mesh cutoff (required, used) =   200.000   223.865 Ry
New grid distribution [1]: sub = 2

        iscf     Eharris(eV)        E_KS(eV)     FreeEng(eV)     dDmax    Ef(eV) dHmax(eV)
   scf:    1     -898.639426     -898.338579     -898.407892  0.024395 -6.353444  0.685714
   scf:    2     -898.321753     -898.334932     -898.403949  0.051766 -5.734055  0.292399
   scf:    3     -898.342289     -898.339004     -898.408208  0.017783 -5.838805  0.185530
   scf:    4     -898.336216     -898.340363     -898.409581  0.051240 -5.813619  0.063925
   scf:    5     -898.341163     -898.341579     -898.410891  0.028381 -5.800537  0.043962
   scf:    6     -898.341534     -898.341638     -898.410949  0.008807 -5.811596  0.038056
   scf:    7     -898.341828     -898.341770     -898.411084  0.004513 -5.782206  0.002639
   scf:    8     -898.341770     -898.341770     -898.411084  0.000215 -5.781498  0.002210
   scf:    9     -898.341768     -898.341769     -898.411084  0.000629 -5.780876  0.001261
   scf:   10     -898.341770     -898.341769     -898.411084  0.000129 -5.780841  0.000973

SCF Convergence by DM+H criterion
max |DM_out - DM_in|         :     0.0001287366
max |H_out - H_in|      (eV) :     0.0009729176
SCF cycle converged after 10 iterations

Using DM_out to compute the final energy and forces
No. of atoms with KB's overlaping orbs in proc 0. Max # of overlaps:       4      22

siesta: E_KS(eV) =             -898.3418

siesta: Atomic forces (eV/Ang):
----------------------------------------
   Tot    0.002950    0.000095   -0.000389
----------------------------------------
   Max    2.133458
   Res    1.134688    sqrt( Sum f_i^2 / 3N )
----------------------------------------
   Max    2.133458    constrained

Stress tensor Voigt[x,y,z,yz,xz,xy] (kbar):       -7.29       -0.55       -0.41       -0.19       -0.85       -0.94
(Free)E + p*V (eV/cell)     -896.6937
Target enthalpy (eV/cell)     -898.4111

siesta: Stress tensor (static) (eV/Ang**3):
        -0.003252   -0.000587   -0.000579
        -0.000586   -0.000126   -0.000162
        -0.000579   -0.000162   -0.000247

siesta: Pressure (static):          1.93589456  kBar

siesta: Stress tensor (total) (eV/Ang**3):
        -0.004551   -0.000587   -0.000529
        -0.000587   -0.000343   -0.000121
        -0.000529   -0.000121   -0.000258

siesta: Pressure (total):          2.75153897  kBar

siesta: Temp_ion =    1812.427 K

                     ====================================
                        Begin MD step =     10
                     ====================================

outcell: Unit cell vectors (Ang):
       10.000004    0.000000    0.000000
        0.000000   10.000004    0.000000
        0.000000    0.000000   10.000004

outcell: Cell vector modules (Ang)   :   10.000004   10.000004   10.000004
outcell: Cell angles (23,13,12) (deg):     90.0000     90.0000     90.0000
outcell: Cell volume (Ang**3)        :   1000.0012
<dSpData1D:S at geom step 10
  <sparsity:sparsity for geom step 10
    nrows_g=26 nrows=26 sparsity=1.0000 nnzs=676, refcount: 7>
  <dData1D:(new from dSpData1D) n=676, refcount: 1>
refcount: 1>
new_DM -- step:    10
Re-using DM from previous geometries...
Number of DMs in history: 1
 DM extrapolation coefficients: 
1   1.00000
New DM after history re-use:
<dSpData2D:SpM extrapolated using coords
  <sparsity:sparsity for geom step 10
    nrows_g=26 nrows=26 sparsity=1.0000 nnzs=676, refcount: 9>
  <dData2D:(temp array for extrapolation) n=676 m=1, refcount: 1>
refcount: 1>
Note: For starting DM, Qtot, Tr[D*S] =         14.00000000         14.02603502
No. of atoms with KB's overlaping orbs in proc 0. Max # of overlaps:       4      22

InitMesh: MESH = 90 x 90 x 90 = 729000
InitMesh: Mesh cutoff (required, used) =   200.000   223.865 Ry
New grid distribution [1]: sub = 2

        iscf     Eharris(eV)        E_KS(eV)     FreeEng(eV)     dDmax    Ef(eV) dHmax(eV)
   scf:    1     -898.336690     -898.127828     -898.197136  0.013883 -6.077686  0.334704
   scf:    2     -898.092919     -898.117491     -898.185927  0.068986 -5.780977  0.210139
   scf:    3     -898.131313     -898.125509     -898.194556  0.027952 -5.851588  0.131688
   scf:    4     -898.126734     -898.128698     -898.197994  0.042919 -5.833680  0.055125
   scf:    5     -898.128304     -898.128883     -898.198187  0.016578 -5.817968  0.027034
   scf:    6     -898.128444     -898.128914     -898.198218  0.013254 -5.829300  0.025765
   scf:    7     -898.129120     -898.129068     -898.198383  0.005490 -5.809705  0.002427
   scf:    8     -898.129072     -898.129071     -898.198386  0.000696 -5.809512  0.001412
   scf:    9     -898.129071     -898.129071     -898.198386  0.000583 -5.808943  0.001112
   scf:   10     -898.129071     -898.129071     -898.198386  0.000026 -5.808914  0.001064
   scf:   11     -898.129071     -898.129071     -898.198386  0.000096 -5.808639  0.000185

SCF Convergence by DM+H criterion
max |DM_out - DM_in|         :     0.0000960198
max |H_out - H_in|      (eV) :     0.0001854409
SCF cycle converged after 11 iterations

Using DM_out to compute the final energy and forces
No. of atoms with KB's overlaping orbs in proc 0. Max # of overlaps:       4      22

siesta: E_KS(eV) =             -898.1291

siesta: Atomic forces (eV/Ang):
----------------------------------------
   Tot    0.003548    0.000169   -0.001484
----------------------------------------
   Max    4.405693
   Res    2.130487    sqrt( Sum f_i^2 / 3N )
----------------------------------------
   Max    4.405693    constrained

Stress tensor Voigt[x,y,z,yz,xz,xy] (kbar):       -8.16       -0.85       -1.11       -0.65       -2.01       -1.68
(Free)E + p*V (eV/cell)     -896.0910
Target enthalpy (eV/cell)     -898.1984

siesta: Stress tensor (static) (eV/Ang**3):
        -0.003932   -0.001041   -0.001338
        -0.001041   -0.000308   -0.000444
        -0.001338   -0.000444   -0.000676

siesta: Pressure (static):          2.62576487  kBar

siesta: Stress tensor (total) (eV/Ang**3):
        -0.005096   -0.001051   -0.001257
        -0.001051   -0.000532   -0.000406
        -0.001257   -0.000406   -0.000694

siesta: Pressure (total):          3.37646146  kBar

siesta: Temp_ion =    1388.372 K

                     ====================================
                        Begin MD step =     11
                     ====================================

outcell: Unit cell vectors (Ang):
       10.000004    0.000000    0.000000
        0.000000   10.000004    0.000000
        0.000000    0.000000   10.000004

outcell: Cell vector modules (Ang)   :   10.000004   10.000004   10.000004
outcell: Cell angles (23,13,12) (deg):     90.0000     90.0000     90.0000
outcell: Cell volume (Ang**3)        :   1000.0012
<dSpData1D:S at geom step 11
  <sparsity:sparsity for geom step 11
    nrows_g=26 nrows=26 sparsity=1.0000 nnzs=676, refcount: 7>
  <dData1D:(new from dSpData1D) n=676, refcount: 1>
refcount: 1>
new_DM -- step:    11
Re-using DM from previous geometries...
Number of DMs in history: 1
 DM extrapolation coefficients: 
1   1.00000
New DM after history re-use:
<dSpData2D:SpM extrapolated using coords
  <sparsity:sparsity for geom step 11
    nrows_g=26 nrows=26 sparsity=1.0000 nnzs=676, refcount: 9>
  <dData2D:(temp array for extrapolation) n=676 m=1, refcount: 1>
refcount: 1>
Note: For starting DM, Qtot, Tr[D*S] =         14.00000000         13.98026273
No. of atoms with KB's overlaping orbs in proc 0. Max # of overlaps:       4      22

InitMesh: MESH = 90 x 90 x 90 = 729000
InitMesh: Mesh cutoff (required, used) =   200.000   223.865 Ry
New grid distribution [1]: sub = 2

        iscf     Eharris(eV)        E_KS(eV)     FreeEng(eV)     dDmax    Ef(eV) dHmax(eV)
   scf:    1     -898.396619     -898.309950     -898.379264  0.012609 -5.683326  0.176946
   scf:    2     -898.307612     -898.309265     -898.378542  0.020535 -5.844847  0.084671
   scf:    3     -898.310005     -898.309670     -898.378969  0.006204 -5.826546  0.080469
   scf:    4     -898.309257     -898.309877     -898.379177  0.022094 -5.843662  0.023772
   scf:    5     -898.310053     -898.310059     -898.379374  0.010783 -5.845281  0.005925
   scf:    6     -898.310061     -898.310060     -898.379375  0.000082 -5.846803  0.005628
   scf:    7     -898.310064     -898.310063     -898.379377  0.000248 -5.844223  0.000580

SCF Convergence by DM+H criterion
max |DM_out - DM_in|         :     0.0002481052
max |H_out - H_in|      (eV) :     0.0005795957
SCF cycle converged after 7 iterations

Using DM_out to compute the final energy and forces
No. of atoms with KB's overlaping orbs in proc 0. Max # of overlaps:       4      22

siesta: E_KS(eV) =             -898.3101

siesta: Atomic forces (eV/Ang):
----------------------------------------
   Tot   -0.003702   -0.000752    0.000535
----------------------------------------
   Max    2.526720
   Res    1.277735    sqrt( Sum f_i^2 / 3N )
----------------------------------------
   Max    2.526720    constrained

Stress tensor Voigt[x,y,z,yz,xz,xy] (kbar):       -4.52       -0.82       -1.05       -0.61       -1.31       -1.15
(Free)E + p*V (eV/cell)     -897.0486
Target enthalpy (eV/cell)     -898.3794

siesta: Stress tensor (static) (eV/Ang**3):
        -0.002110   -0.000698   -0.000924
        -0.000697   -0.000250   -0.000366
        -0.000924   -0.000366   -0.000556

siesta: Pressure (static):          1.55713161  kBar

siesta: Stress tensor (total) (eV/Ang**3):
        -0.002820   -0.000716   -0.000818
        -0.000716   -0.000515   -0.000383
        -0.000818   -0.000383   -0.000658

siesta: Pressure (total):          2.13218734  kBar

siesta: Temp_ion =    1748.554 K

                     ====================================
                        Begin MD step =     12
                     ====================================

outcell: Unit cell vectors (Ang):
       10.000004    0.000000    0.000000
        0.000000   10.000004    0.000000
        0.000000    0.000000   10.000004

outcell: Cell vector modules (Ang)   :   10.000004   10.000004   10.000004
outcell: Cell angles (23,13,12) (deg):     90.0000     90.0000     90.0000
outcell: Cell volume (Ang**3)        :   1000.0012
<dSpData1D:S at geom step 12
  <sparsity:sparsity for geom step 12
    nrows_g=26 nrows=26 sparsity=1.0000 nnzs=676, refcount: 7>
  <dData1D:(new from dSpData1D) n=676, refcount: 1>
refcount: 1>
new_DM -- step:    12
Re-using DM from previous geometries...
Number of DMs in history: 1
 DM extrapolation coefficients: 
1   1.00000
New DM after history re-use:
<dSpData2D:SpM extrapolated using coords
  <sparsity:sparsity for geom step 12
    nrows_g=26 nrows=26 sparsity=1.0000 nnzs=676, refcount: 9>
  <dData2D:(temp array for extrapolation) n=676 m=1, refcount: 1>
refcount: 1>
Note: For starting DM, Qtot, Tr[D*S] =         14.00000000         13.94765469
No. of atoms with KB's overlaping orbs in proc 0. Max # of overlaps:       4      22

InitMesh: MESH = 90 x 90 x 90 = 729000
InitMesh: Mesh cutoff (required, used) =   200.000   223.865 Ry
New grid distribution [1]: sub = 2

        iscf     Eharris(eV)        E_KS(eV)     FreeEng(eV)     dDmax    Ef(eV) dHmax(eV)
   scf:    1     -898.414154     -898.441574     -898.510888  0.024278 -5.416313  0.549571
   scf:    2     -898.425846     -898.437042     -898.506237  0.038077 -5.905843  0.276787
   scf:    3     -898.442442     -898.440004     -898.509275  0.012641 -5.822741  0.225207
   scf:    4     -898.439480     -898.441681     -898.510930  0.039861 -5.873315  0.037611
   scf:    5     -898.442370     -898.442439     -898.511754  0.020660 -5.875743  0.016933
   scf:    6     -898.442442     -898.442441     -898.511756  0.000100 -5.876786  0.017134
   scf:    7     -898.442483     -898.442467     -898.511782  0.001036 -5.884831  0.002126
   scf:    8     -898.442467     -898.442467     -898.511782  0.000307 -5.884623  0.001403
   scf:    9     -898.442466     -898.442467     -898.511782  0.000325 -5.885482  0.000932
   scf:   10     -898.442467     -898.442467     -898.511782  0.000048 -5.885644  0.000693

SCF Convergence by DM+H criterion
max |DM_out - DM_in|         :     0.0000483818
max |H_out - H_in|      (eV) :     0.0006933000
SCF cycle converged after 10 iterations

Using DM_out to compute the final energy and forces
No. of atoms with KB's overlaping orbs in proc 0. Max # of overlaps:       4      22

siesta: E_KS(eV) =             -898.4425

siesta: Atomic forces (eV/Ang):
----------------------------------------
   Tot   -0.001442   -0.001210   -0.000889
----------------------------------------
   Max    0.275384
   Res    0.140723    sqrt( Sum f_i^2 / 3N )
----------------------------------------
   Max    0.275384    constrained

Stress tensor Voigt[x,y,z,yz,xz,xy] (kbar):       -0.55       -0.52       -0.37       -0.17        0.06       -0.12
(Free)E + p*V (eV/cell)     -898.2130
Target enthalpy (eV/cell)     -898.5118

siesta: Stress tensor (static) (eV/Ang**3):
         0.000325    0.000082    0.000121
         0.000082    0.000042    0.000058
         0.000121    0.000058    0.000093

siesta: Pressure (static):         -0.24556126  kBar

siesta: Stress tensor (total) (eV/Ang**3):
        -0.000344   -0.000076    0.000036
        -0.000076   -0.000322   -0.000104
         0.000036   -0.000104   -0.000230

siesta: Pressure (total):          0.47867971  kBar

siesta: Temp_ion =    2066.964 K

                     ====================================
                        Begin MD step =     13
                     ====================================

outcell: Unit cell vectors (Ang):
       10.000004    0.000000    0.000000
        0.000000   10.000004    0.000000
        0.000000    0.000000   10.000004

outcell: Cell vector modules (Ang)   :   10.000004   10.000004   10.000004
outcell: Cell angles (23,13,12) (deg):     90.0000     90.0000     90.0000
outcell: Cell volume (Ang**3)        :   1000.0012
<dSpData1D:S at geom step 13
  <sparsity:sparsity for geom step 13
    nrows_g=26 nrows=26 sparsity=1.0000 nnzs=676, refcount: 7>
  <dData1D:(new from dSpData1D) n=676, refcount: 1>
refcount: 1>
new_DM -- step:    13
Re-using DM from previous geometries...
Number of DMs in history: 1
 DM extrapolation coefficients: 
1   1.00000
New DM after history re-use:
<dSpData2D:SpM extrapolated using coords
  <sparsity:sparsity for geom step 13
    nrows_g=26 nrows=26 sparsity=1.0000 nnzs=676, refcount: 9>
  <dData2D:(temp array for extrapolation) n=676 m=1, refcount: 1>
refcount: 1>
Note: For starting DM, Qtot, Tr[D*S] =         14.00000000         13.94132759
No. of atoms with KB's overlaping orbs in proc 0. Max # of overlaps:       4      22

InitMesh: MESH = 90 x 90 x 90 = 729000
InitMesh: Mesh cutoff (required, used) =   200.000   223.865 Ry
New grid distribution [1]: sub = 2

        iscf     Eharris(eV)        E_KS(eV)     FreeEng(eV)     dDmax    Ef(eV) dHmax(eV)
   scf:    1     -898.209355     -898.297664     -898.366973  0.023100 -5.399326  0.625509
   scf:    2     -898.251818     -898.283860     -898.352431  0.076310 -5.951674  0.378155
   scf:    3     -898.300398     -898.293175     -898.362235  0.027658 -5.842337  0.298525
   scf:    4     -898.287425     -898.296433     -898.365543  0.071390 -5.908358  0.081516
   scf:    5     -898.298212     -898.298924     -898.368235  0.037373 -5.911162  0.019809
   scf:    6     -898.298978     -898.298958     -898.368272  0.002376 -5.915139  0.020602
   scf:    7     -898.299030     -898.299004     -898.368318  0.001706 -5.926461  0.002374
   scf:    8     -898.299005     -898.299004     -898.368319  0.000482 -5.925334  0.002861
   scf:    9     -898.299003     -898.299004     -898.368319  0.000585 -5.927057  0.001911
   scf:   10     -898.299004     -898.299004     -898.368319  0.000096 -5.927142  0.001607
   scf:   11     -898.299005     -898.299004     -898.368319  0.000366 -5.927358  0.001271
   scf:   12     -898.299005     -898.299005     -898.368319  0.000156 -5.927406  0.001080
   scf:   13     -898.299005     -898.299005     -898.368319  0.000184 -5.927523  0.000298

SCF Convergence by DM+H criterion
max |DM_out - DM_in|         :     0.0001843622
max |H_out - H_in|      (eV) :     0.0002977803
SCF cycle converged after 13 iterations

Using DM_out to compute the final energy and forces
No. of atoms with KB's overlaping orbs in proc 0. Max # of overlaps:       4      22

siesta: E_KS(eV) =             -898.2990

siesta: Atomic forces (eV/Ang):
----------------------------------------
   Tot    0.001250   -0.000151   -0.000639
----------------------------------------
   Max    1.652500
   Res    0.937291    sqrt( Sum f_i^2 / 3N )
----------------------------------------
   Max    1.652500    constrained

Stress tensor Voigt[x,y,z,yz,xz,xy] (kbar):        1.98       -0.14        0.45        0.36        1.10        0.73
(Free)E + p*V (eV/cell)     -898.8434
Target enthalpy (eV/cell)     -898.3683

siesta: Stress tensor (static) (eV/Ang**3):
         0.001993    0.000694    0.000887
         0.000694    0.000324    0.000461
         0.000887    0.000461    0.000712

siesta: Pressure (static):         -1.61736624  kBar

siesta: Stress tensor (total) (eV/Ang**3):
         0.001235    0.000454    0.000685
         0.000454   -0.000088    0.000227
         0.000685    0.000227    0.000278

siesta: Pressure (total):         -0.76124179  kBar

siesta: Temp_ion =    1747.892 K

                     ====================================
                        Begin MD step =     14
                     ====================================

outcell: Unit cell vectors (Ang):
       10.000004    0.000000    0.000000
        0.000000   10.000004    0.000000
        0.000000    0.000000   10.000004

outcell: Cell vector modules (Ang)   :   10.000004   10.000004   10.000004
outcell: Cell angles (23,13,12) (deg):     90.0000     90.0000     90.0000
outcell: Cell volume (Ang**3)        :   1000.0012
<dSpData1D:S at geom step 14
  <sparsity:sparsity for geom step 14
    nrows_g=26 nrows=26 sparsity=.9882 nnzs=668, refcount: 7>
  <dData1D:(new from dSpData1D) n=668, refcount: 1>
refcount: 1>
new_DM -- step:    14
Re-using DM from previous geometries...
Number of DMs in history: 1
 DM extrapolation coefficients: 
1   1.00000
New DM after history re-use:
<dSpData2D:SpM extrapolated using coords
  <sparsity:sparsity for geom step 14
    nrows_g=26 nrows=26 sparsity=.9882 nnzs=668, refcount: 9>
  <dData2D:(temp array for extrapolation) n=668 m=1, refcount: 1>
refcount: 1>
Note: For starting DM, Qtot, Tr[D*S] =         14.00000000         13.96078899
No. of atoms with KB's overlaping orbs in proc 0. Max # of overlaps:       4      22

InitMesh: MESH = 90 x 90 x 90 = 729000
InitMesh: Mesh cutoff (required, used) =   200.000   223.865 Ry
New grid distribution [1]: sub = 2

        iscf     Eharris(eV)        E_KS(eV)     FreeEng(eV)     dDmax    Ef(eV) dHmax(eV)
   scf:    1     -898.100260     -898.129378     -898.198690  0.014044 -5.623916  0.402127
   scf:    2     -898.109622     -898.123382     -898.192422  0.044362 -5.978307  0.248902
   scf:    3     -898.130521     -898.127405     -898.196631  0.016335 -5.905140  0.206980
   scf:    4     -898.125140     -898.128812     -898.198033  0.041502 -5.956694  0.047412
   scf:    5     -898.129780     -898.129877     -898.199191  0.020430 -5.959656  0.007826
   scf:    6     -898.129880     -898.129879     -898.199193  0.000454 -5.961081  0.008100
   scf:    7     -898.129891     -898.129887     -898.199201  0.000633 -5.965325  0.001800
   scf:    8     -898.129887     -898.129887     -898.199202  0.000289 -5.964942  0.001663
   scf:    9     -898.129887     -898.129887     -898.199201  0.000283 -5.965858  0.001313
   scf:   10     -898.129887     -898.129887     -898.199201  0.000057 -5.965977  0.001034
   scf:   11     -898.129887     -898.129887     -898.199202  0.000311 -5.966097  0.000615
   scf:   12     -898.129887     -898.129887     -898.199202  0.000101 -5.966122  0.000536

SCF Convergence by DM+H criterion
max |DM_out - DM_in|         :     0.0001006764
max |H_out - H_in|      (eV) :     0.0005363684
SCF cycle converged after 12 iterations

Using DM_out to compute the final energy and forces
No. of atoms with KB's overlaping orbs in proc 0. Max # of overlaps:       4      22

siesta: E_KS(eV) =             -898.1299

siesta: Atomic forces (eV/Ang):
----------------------------------------
   Tot   -0.001213    0.000339    0.000194
----------------------------------------
   Max    2.083462
   Res    1.267459    sqrt( Sum f_i^2 / 3N )
----------------------------------------
   Max    2.083462    constrained

Stress tensor Voigt[x,y,z,yz,xz,xy] (kbar):        3.60        0.24        1.25        0.89        1.83        1.40
(Free)E + p*V (eV/cell)     -899.2586
Target enthalpy (eV/cell)     -898.1992

siesta: Stress tensor (static) (eV/Ang**3):
         0.002933    0.001039    0.001236
         0.001039    0.000507    0.000708
         0.001236    0.000708    0.001093

siesta: Pressure (static):         -2.42127244  kBar

siesta: Stress tensor (total) (eV/Ang**3):
         0.002248    0.000874    0.001139
         0.000874    0.000149    0.000554
         0.001139    0.000554    0.000782

siesta: Pressure (total):         -1.69730575  kBar

siesta: Temp_ion =    1337.606 K

                     ====================================
                        Begin MD step =     15
                     ====================================

outcell: Unit cell vectors (Ang):
       10.000004    0.000000    0.000000
        0.000000   10.000004    0.000000
        0.000000    0.000000   10.000004

outcell: Cell vector modules (Ang)   :   10.000004   10.000004   10.000004
outcell: Cell angles (23,13,12) (deg):     90.0000     90.0000     90.0000
outcell: Cell volume (Ang**3)        :   1000.0012
<dSpData1D:S at geom step 15
  <sparsity:sparsity for geom step 15
    nrows_g=26 nrows=26 sparsity=.9882 nnzs=668, refcount: 7>
  <dData1D:(new from dSpData1D) n=668, refcount: 1>
refcount: 1>
new_DM -- step:    15
Re-using DM from previous geometries...
Number of DMs in history: 1
 DM extrapolation coefficients: 
1   1.00000
New DM after history re-use:
<dSpData2D:SpM extrapolated using coords
  <sparsity:sparsity for geom step 15
    nrows_g=26 nrows=26 sparsity=.9882 nnzs=668, refcount: 9>
  <dData2D:(temp array for extrapolation) n=668 m=1, refcount: 1>
refcount: 1>
No. of atoms with KB's overlaping orbs in proc 0. Max # of overlaps:       4      22

InitMesh: MESH = 90 x 90 x 90 = 729000
InitMesh: Mesh cutoff (required, used) =   200.000   223.865 Ry
New grid distribution [1]: sub = 2

        iscf     Eharris(eV)        E_KS(eV)     FreeEng(eV)     dDmax    Ef(eV) dHmax(eV)
   scf:    1     -898.194507     -898.097404     -898.166719  0.012373 -5.961227  0.044477
   scf:    2     -898.096958     -898.097365     -898.166663  0.009395 -5.990380  0.028994
   scf:    3     -898.097678     -898.097560     -898.166870  0.004881 -5.979571  0.022553
   scf:    4     -898.097444     -898.097559     -898.166872  0.007418 -5.983497  0.017718
   scf:    5     -898.097582     -898.097588     -898.166902  0.004008 -5.996668  0.006184
   scf:    6     -898.097589     -898.097588     -898.166903  0.000161 -5.997335  0.005019
   scf:    7     -898.097590     -898.097590     -898.166904  0.000271 -5.998194  0.000364

SCF Convergence by DM+H criterion
max |DM_out - DM_in|         :     0.0002713054
max |H_out - H_in|      (eV) :     0.0003640932
SCF cycle converged after 7 iterations

Using DM_out to compute the final energy and forces
No. of atoms with KB's overlaping orbs in proc 0. Max # of overlaps:       4      22

siesta: E_KS(eV) =             -898.0976

siesta: Atomic forces (eV/Ang):
----------------------------------------
   Tot    0.000917    0.000685    0.000738
----------------------------------------
   Max    2.041359
   Res    1.352393    sqrt( Sum f_i^2 / 3N )
----------------------------------------
   Max    2.041359    constrained

Stress tensor Voigt[x,y,z,yz,xz,xy] (kbar):        4.36        0.50        1.76        1.21        2.06        1.76
(Free)E + p*V (eV/cell)     -899.5432
Target enthalpy (eV/cell)     -898.1669

siesta: Stress tensor (static) (eV/Ang**3):
         0.003359    0.001162    0.001251
         0.001162    0.000583    0.000789
         0.001251    0.000789    0.001224

siesta: Pressure (static):         -2.75901539  kBar

siesta: Stress tensor (total) (eV/Ang**3):
         0.002721    0.001096    0.001283
         0.001096    0.000309    0.000757
         0.001283    0.000757    0.001099

siesta: Pressure (total):         -2.20498661  kBar

siesta: Temp_ion =    1257.298 K

                     ====================================
                        Begin MD step =     16
                     ====================================

outcell: Unit cell vectors (Ang):
       10.000004    0.000000    0.000000
        0.000000   10.000004    0.000000
        0.000000    0.000000   10.000004

outcell: Cell vector modules (Ang)   :   10.000004   10.000004   10.000004
outcell: Cell angles (23,13,12) (deg):     90.0000     90.0000     90.0000
outcell: Cell volume (Ang**3)        :   1000.0012
<dSpData1D:S at geom step 16
  <sparsity:sparsity for geom step 16
    nrows_g=26 nrows=26 sparsity=.9882 nnzs=668, refcount: 7>
  <dData1D:(new from dSpData1D) n=668, refcount: 1>
refcount: 1>
new_DM -- step:    16
Re-using DM from previous geometries...
Number of DMs in history: 1
 DM extrapolation coefficients: 
1   1.00000
New DM after history re-use:
<dSpData2D:SpM extrapolated using coords
  <sparsity:sparsity for geom step 16
    nrows_g=26 nrows=26 sparsity=.9882 nnzs=668, refcount: 9>
  <dData2D:(temp array for extrapolation) n=668 m=1, refcount: 1>
refcount: 1>
Note: For starting DM, Qtot, Tr[D*S] =         14.00000000         14.02787992
No. of atoms with KB's overlaping orbs in proc 0. Max # of overlaps:       4      22

InitMesh: MESH = 90 x 90 x 90 = 729000
InitMesh: Mesh cutoff (required, used) =   200.000   223.865 Ry
New grid distribution [1]: sub = 2

        iscf     Eharris(eV)        E_KS(eV)     FreeEng(eV)     dDmax    Ef(eV) dHmax(eV)
   scf:    1     -898.440402     -898.220929     -898.290243  0.012326 -6.307108  0.379997
   scf:    2     -898.202621     -898.215919     -898.285207  0.020042 -5.992914  0.321716
   scf:    3     -898.224275     -898.220774     -898.290084  0.009055 -6.099646  0.214151
   scf:    4     -898.221846     -898.222158     -898.291457  0.014565 -6.041802  0.031729
   scf:    5     -898.222052     -898.222271     -898.291584  0.010637 -6.035835  0.027108
   scf:    6     -898.222372     -898.222326     -898.291640  0.001068 -6.039539  0.021119
   scf:    7     -898.222395     -898.222378     -898.291693  0.002754 -6.022612  0.001194
   scf:    8     -898.222378     -898.222378     -898.291693  0.000256 -6.022418  0.000659

SCF Convergence by DM+H criterion
max |DM_out - DM_in|         :     0.0002558669
max |H_out - H_in|      (eV) :     0.0006586414
SCF cycle converged after 8 iterations

Using DM_out to compute the final energy and forces
No. of atoms with KB's overlaping orbs in proc 0. Max # of overlaps:       4      22

siesta: E_KS(eV) =             -898.2224

siesta: Atomic forces (eV/Ang):
----------------------------------------
   Tot    0.000288    0.000946    0.001213
----------------------------------------
   Max    1.655863
   Res    1.235354    sqrt( Sum f_i^2 / 3N )
----------------------------------------
   Max    1.655863    constrained

Stress tensor Voigt[x,y,z,yz,xz,xy] (kbar):        4.19        0.50        1.67        1.14        1.60        1.66
(Free)E + p*V (eV/cell)     -899.6143
Target enthalpy (eV/cell)     -898.2917

siesta: Stress tensor (static) (eV/Ang**3):
         0.003354    0.001070    0.000955
         0.001071    0.000531    0.000675
         0.000955    0.000675    0.001058

siesta: Pressure (static):         -2.63984051  kBar

siesta: Stress tensor (total) (eV/Ang**3):
         0.002617    0.001033    0.000996
         0.001034    0.000310    0.000713
         0.000996    0.000713    0.001041

siesta: Pressure (total):         -2.11907486  kBar

siesta: Temp_ion =    1561.353 K

                     ====================================
                        Begin MD step =     17
                     ====================================

outcell: Unit cell vectors (Ang):
       10.000004    0.000000    0.000000
        0.000000   10.000004    0.000000
        0.000000    0.000000   10.000004

outcell: Cell vector modules (Ang)   :   10.000004   10.000004   10.000004
outcell: Cell angles (23,13,12) (deg):     90.0000     90.0000     90.0000
outcell: Cell volume (Ang**3)        :   1000.0012
Gamma-point calculation with multiply-connected orbital pairs
Gamma-point calculation with multiply-connected orbital pairs
Folding of H and S implicitly performed
Folding of H and S implicitly performed
<dSpData1D:S at geom step 17
  <sparsity:sparsity for geom step 17
    nrows_g=26 nrows=26 sparsity=1.0000 nnzs=676, refcount: 7>
  <dData1D:(new from dSpData1D) n=676, refcount: 1>
refcount: 1>
new_DM -- step:    17
Re-using DM from previous geometries...
Number of DMs in history: 1
 DM extrapolation coefficients: 
1   1.00000
New DM after history re-use:
<dSpData2D:SpM extrapolated using coords
  <sparsity:sparsity for geom step 17
    nrows_g=26 nrows=26 sparsity=1.0000 nnzs=676, refcount: 9>
[...]
Note: For starting DM, Qtot, Tr[D*S] =         14.00000000         13.95011973
No. of atoms with KB's overlaping orbs in proc 0. Max # of overlaps:       4      18

InitMesh: MESH = 90 x 90 x 90 = 729000
InitMesh: Mesh cutoff (required, used) =   200.000   223.865 Ry
New grid distribution [1]: sub = 2

        iscf     Eharris(eV)        E_KS(eV)     FreeEng(eV)     dDmax    Ef(eV) dHmax(eV)
   scf:    1     -897.862520     -898.219912     -898.289217  0.023148 -5.323454  0.623146
   scf:    2     -898.172547     -898.206471     -898.274572  0.074249 -5.895810  0.258256
   scf:    3     -898.224307     -898.216523     -898.285381  0.025674 -5.800406  0.144715
   scf:    4     -898.218379     -898.221932     -898.291211  0.051548 -5.822019  0.062212
   scf:    5     -898.220873     -898.222259     -898.291544  0.022703 -5.824564  0.037952
   scf:    6     -898.222697     -898.222549     -898.291860  0.006438 -5.832075  0.034771
   scf:    7     -898.222815     -898.222724     -898.292038  0.003411 -5.853051  0.002052
   scf:    8     -898.222727     -898.222726     -898.292041  0.000766 -5.853854  0.001921
   scf:    9     -898.222725     -898.222726     -898.292041  0.000441 -5.854137  0.001509
   scf:   10     -898.222726     -898.222726     -898.292041  0.000120 -5.854406  0.001322
   scf:   11     -898.222726     -898.222726     -898.292041  0.000225 -5.854826  0.000834

SCF Convergence by DM+H criterion
max |DM_out - DM_in|         :     0.0002253295
max |H_out - H_in|      (eV) :     0.0008337185
SCF cycle converged after 11 iterations

Using DM_out to compute the final energy and forces
No. of atoms with KB's overlaping orbs in proc 0. Max # of overlaps:       4      18

siesta: E_KS(eV) =             -898.2227

siesta: Atomic forces (eV/Ang):
----------------------------------------
   Tot    0.007349   -0.003785   -0.001609
----------------------------------------
   Max    2.263744
   Res    1.061726    sqrt( Sum f_i^2 / 3N )
----------------------------------------
   Max    2.263744    constrained

Stress tensor Voigt[x,y,z,yz,xz,xy] (kbar):       -0.07       -0.60        2.74        0.42       -1.48        0.58
(Free)E + p*V (eV/cell)     -898.7226
Target enthalpy (eV/cell)     -898.2920

siesta: Stress tensor (static) (eV/Ang**3):
         0.000770    0.000020   -0.001125
         0.000020    0.000050    0.000099
        -0.001125    0.000099    0.001992

siesta: Pressure (static):         -1.50166734  kBar

siesta: Stress tensor (total) (eV/Ang**3):
        -0.000043    0.000365   -0.000924
         0.000365   -0.000377    0.000261
        -0.000924    0.000261    0.001712

siesta: Pressure (total):         -0.68986369  kBar

siesta: Temp_ion =    1556.544 K

                     ====================================
                        Begin MD step =    198
                     ====================================

outcell: Unit cell vectors (Ang):
       10.000004    0.000000    0.000000
        0.000000   10.000004    0.000000
        0.000000    0.000000   10.000004

outcell: Cell vector modules (Ang)   :   10.000004   10.000004   10.000004
outcell: Cell angles (23,13,12) (deg):     90.0000     90.0000     90.0000
outcell: Cell volume (Ang**3)        :   1000.0012
<dSpData1D:S at geom step 198
  <sparsity:sparsity for geom step 198
    nrows_g=26 nrows=26 sparsity=.6686 nnzs=452, refcount: 7>
  <dData1D:(new from dSpData1D) n=452, refcount: 1>
refcount: 1>
new_DM -- step:   198
Re-using DM from previous geometries...
Number of DMs in history: 1
 DM extrapolation coefficients: 
1   1.00000
New DM after history re-use:
<dSpData2D:SpM extrapolated using coords
  <sparsity:sparsity for geom step 198
    nrows_g=26 nrows=26 sparsity=.6686 nnzs=452, refcount: 9>
  <dData2D:(temp array for extrapolation) n=452 m=1, refcount: 1>
refcount: 1>
Note: For starting DM, Qtot, Tr[D*S] =         14.00000000         13.97572923
No. of atoms with KB's overlaping orbs in proc 0. Max # of overlaps:       4      18

InitMesh: MESH = 90 x 90 x 90 = 729000
InitMesh: Mesh cutoff (required, used) =   200.000   223.865 Ry
New grid distribution [1]: sub = 2

        iscf     Eharris(eV)        E_KS(eV)     FreeEng(eV)     dDmax    Ef(eV) dHmax(eV)
   scf:    1     -897.860245     -898.104867     -898.174176  0.025055 -5.552230  0.318308
   scf:    2     -898.074467     -898.095891     -898.164394  0.081312 -5.844191  0.174278
   scf:    3     -898.107599     -898.102612     -898.171653  0.031060 -5.784369  0.090625
   scf:    4     -898.105116     -898.105845     -898.175157  0.047310 -5.798521  0.032393
   scf:    5     -898.105534     -898.105854     -898.175159  0.013284 -5.800364  0.026988
   scf:    6     -898.105990     -898.105947     -898.175261  0.005323 -5.805671  0.018331
   scf:    7     -898.106023     -898.105999     -898.175313  0.002509 -5.817798  0.001139
   scf:    8     -898.105999     -898.105999     -898.175314  0.000460 -5.818250  0.000971
   scf:    9     -898.105999     -898.105999     -898.175314  0.000289 -5.818405  0.000716

SCF Convergence by DM+H criterion
max |DM_out - DM_in|         :     0.0002890527
max |H_out - H_in|      (eV) :     0.0007157072
SCF cycle converged after 9 iterations

Using DM_out to compute the final energy and forces
No. of atoms with KB's overlaping orbs in proc 0. Max # of overlaps:       4      18

siesta: E_KS(eV) =             -898.1060

siesta: Atomic forces (eV/Ang):
----------------------------------------
   Tot    0.006963   -0.006043   -0.001218
----------------------------------------
   Max    2.568402
   Res    1.237966    sqrt( Sum f_i^2 / 3N )
----------------------------------------
   Max    2.568402    constrained

Stress tensor Voigt[x,y,z,yz,xz,xy] (kbar):       -0.18       -0.81        3.51        0.39       -2.18        0.22
(Free)E + p*V (eV/cell)     -898.6983
Target enthalpy (eV/cell)     -898.1753

siesta: Stress tensor (static) (eV/Ang**3):
         0.000570   -0.000216   -0.001378
        -0.000216   -0.000086    0.000101
        -0.001378    0.000101    0.002292

siesta: Pressure (static):         -1.48268534  kBar

siesta: Stress tensor (total) (eV/Ang**3):
        -0.000113    0.000136   -0.001359
         0.000136   -0.000508    0.000245
        -0.001359    0.000245    0.002190

siesta: Pressure (total):         -0.83797385  kBar

siesta: Temp_ion =    1270.779 K

                     ====================================
                        Begin MD step =    199
                     ====================================

outcell: Unit cell vectors (Ang):
       10.000004    0.000000    0.000000
        0.000000   10.000004    0.000000
        0.000000    0.000000   10.000004

outcell: Cell vector modules (Ang)   :   10.000004   10.000004   10.000004
outcell: Cell angles (23,13,12) (deg):     90.0000     90.0000     90.0000
outcell: Cell volume (Ang**3)        :   1000.0012
<dSpData1D:S at geom step 199
  <sparsity:sparsity for geom step 199
    nrows_g=26 nrows=26 sparsity=.6686 nnzs=452, refcount: 7>
  <dData1D:(new from dSpData1D) n=452, refcount: 1>
refcount: 1>
new_DM -- step:   199
Re-using DM from previous geometries...
Number of DMs in history: 1
 DM extrapolation coefficients: 
1   1.00000
New DM after history re-use:
<dSpData2D:SpM extrapolated using coords
  <sparsity:sparsity for geom step 199
    nrows_g=26 nrows=26 sparsity=.6686 nnzs=452, refcount: 9>
  <dData2D:(temp array for extrapolation) n=452 m=1, refcount: 1>
refcount: 1>
No. of atoms with KB's overlaping orbs in proc 0. Max # of overlaps:       4      18

InitMesh: MESH = 90 x 90 x 90 = 729000
InitMesh: Mesh cutoff (required, used) =   200.000   223.865 Ry
New grid distribution [1]: sub = 2

        iscf     Eharris(eV)        E_KS(eV)     FreeEng(eV)     dDmax    Ef(eV) dHmax(eV)
   scf:    1     -898.073536     -898.145315     -898.214629  0.022707 -5.869149  0.086473
   scf:    2     -898.141869     -898.144290     -898.213510  0.022049 -5.790500  0.044033
   scf:    3     -898.145439     -898.144928     -898.214201  0.006795 -5.798180  0.039871
   scf:    4     -898.145289     -898.145409     -898.214723  0.014840 -5.789427  0.014663
   scf:    5     -898.145429     -898.145429     -898.214744  0.002218 -5.786377  0.007943
   scf:    6     -898.145433     -898.145433     -898.214748  0.001291 -5.791076  0.008835
   scf:    7     -898.145438     -898.145437     -898.214752  0.000834 -5.786862  0.000423
   scf:    8     -898.145437     -898.145437     -898.214752  0.000116 -5.786861  0.000363

SCF Convergence by DM+H criterion
max |DM_out - DM_in|         :     0.0001161808
max |H_out - H_in|      (eV) :     0.0003634519
SCF cycle converged after 8 iterations

Using DM_out to compute the final energy and forces
No. of atoms with KB's overlaping orbs in proc 0. Max # of overlaps:       4      18

siesta: E_KS(eV) =             -898.1454

siesta: Atomic forces (eV/Ang):
----------------------------------------
   Tot    0.002065   -0.005768   -0.001706
----------------------------------------
   Max    2.389508
   Res    1.211102    sqrt( Sum f_i^2 / 3N )
----------------------------------------
   Max    2.389508    constrained

Stress tensor Voigt[x,y,z,yz,xz,xy] (kbar):       -0.44       -1.05        3.21        0.31       -2.30       -0.09
(Free)E + p*V (eV/cell)     -898.5732
Target enthalpy (eV/cell)     -898.2148

siesta: Stress tensor (static) (eV/Ang**3):
         0.000244   -0.000423   -0.001300
        -0.000423   -0.000227    0.000083
        -0.001300    0.000083    0.002044

siesta: Pressure (static):         -1.10070516  kBar

siesta: Stress tensor (total) (eV/Ang**3):
        -0.000275   -0.000057   -0.001436
        -0.000057   -0.000654    0.000194
        -0.001436    0.000193    0.002005

siesta: Pressure (total):         -0.57435593  kBar

siesta: Temp_ion =    1367.850 K

                     ====================================
                        Begin MD step =    200
                     ====================================

outcell: Unit cell vectors (Ang):
       10.000004    0.000000    0.000000
        0.000000   10.000004    0.000000
        0.000000    0.000000   10.000004

outcell: Cell vector modules (Ang)   :   10.000004   10.000004   10.000004
outcell: Cell angles (23,13,12) (deg):     90.0000     90.0000     90.0000
outcell: Cell volume (Ang**3)        :   1000.0012
<dSpData1D:S at geom step 200
  <sparsity:sparsity for geom step 200
    nrows_g=26 nrows=26 sparsity=.6686 nnzs=452, refcount: 7>
  <dData1D:(new from dSpData1D) n=452, refcount: 1>
refcount: 1>
new_DM -- step:   200
Re-using DM from previous geometries...
Number of DMs in history: 1
 DM extrapolation coefficients: 
1   1.00000
New DM after history re-use:
<dSpData2D:SpM extrapolated using coords
  <sparsity:sparsity for geom step 200
    nrows_g=26 nrows=26 sparsity=.6686 nnzs=452, refcount: 9>
  <dData2D:(temp array for extrapolation) n=452 m=1, refcount: 1>
refcount: 1>
Note: For starting DM, Qtot, Tr[D*S] =         14.00000000         14.04148617
No. of atoms with KB's overlaping orbs in proc 0. Max # of overlaps:       4      18

InitMesh: MESH = 90 x 90 x 90 = 729000
InitMesh: Mesh cutoff (required, used) =   200.000   223.865 Ry
New grid distribution [1]: sub = 2

        iscf     Eharris(eV)        E_KS(eV)     FreeEng(eV)     dDmax    Ef(eV) dHmax(eV)
   scf:    1     -898.399196     -898.308995     -898.378309  0.022302 -6.177209  0.465557
   scf:    2     -898.305322     -898.308130     -898.377375  0.021095 -5.743440  0.112793
   scf:    3     -898.309444     -898.308844     -898.378127  0.006327 -5.782523  0.080359
   scf:    4     -898.308223     -898.309287     -898.378577  0.024249 -5.772095  0.021694
   scf:    5     -898.309566     -898.309598     -898.378912  0.012059 -5.768234  0.016520
   scf:    6     -898.309619     -898.309614     -898.378928  0.001693 -5.771494  0.014214
   scf:    7     -898.309628     -898.309624     -898.378939  0.000814 -5.762255  0.001523
   scf:    8     -898.309624     -898.309624     -898.378939  0.000152 -5.761696  0.000715

SCF Convergence by DM+H criterion
max |DM_out - DM_in|         :     0.0001517977
max |H_out - H_in|      (eV) :     0.0007154927
SCF cycle converged after 8 iterations

Using DM_out to compute the final energy and forces
No. of atoms with KB's overlaping orbs in proc 0. Max # of overlaps:       4      18

siesta: E_KS(eV) =             -898.3096

siesta: Atomic forces (eV/Ang):
----------------------------------------
   Tot   -0.002597   -0.004240    0.001587
----------------------------------------
   Max    1.657595
   Res    0.944267    sqrt( Sum f_i^2 / 3N )
----------------------------------------
   Max    1.657595    constrained

Stress tensor Voigt[x,y,z,yz,xz,xy] (kbar):       -1.10       -1.28        1.72        0.22       -1.57       -0.33
(Free)E + p*V (eV/cell)     -898.2394
Target enthalpy (eV/cell)     -898.3789

siesta: Stress tensor (static) (eV/Ang**3):
        -0.000275   -0.000595   -0.000834
        -0.000595   -0.000361    0.000069
        -0.000834    0.000069    0.001279

siesta: Pressure (static):         -0.34293909  kBar

siesta: Stress tensor (total) (eV/Ang**3):
        -0.000689   -0.000209   -0.000982
        -0.000209   -0.000801    0.000139
        -0.000982    0.000139    0.001071

siesta: Pressure (total):          0.22361630  kBar

siesta: Temp_ion =    1762.781 K

coxmol: Writing XMOL coordinates into file xoc.xyz                                                                                                                                                                                                                             

siesta: Program's energy decomposition (eV):
siesta: Ebs     =      -201.967450
siesta: Eions   =      1581.702395
siesta: Ena     =       336.980687
siesta: Ekin    =       624.638453
siesta: Enl     =       -88.360669
siesta: Eso     =         0.000000
siesta: Edftu   =         0.000000
siesta: DEna    =        13.341366
siesta: DUscf   =         0.982661
siesta: DUext   =         0.000000
siesta: Ex      =      -190.314617
siesta: Ec      =       -13.875110
siesta: Exc     =      -204.189727
siesta: EbV     =         0.000000
siesta: eta*DQ  =         0.000000
siesta: Emadel  =         0.000000
siesta: Emeta   =         0.000000
siesta: Emolmec =         0.000000
siesta: Ekinion =         0.683571
siesta: Eharris =      -897.626053
siesta: Etot    =      -897.626053
siesta: FreeEng =      -897.695367

siesta: Final energy (eV):
siesta:  Band Struct. =    -201.967450
siesta:       Kinetic =     624.638453
siesta:       Hartree =     856.335046
siesta:         Edftu =       0.000000
siesta:       Eso     =       0.000000
siesta:    Ext. field =       0.000000
siesta:         Exch. =    -190.314617
siesta:         Corr. =     -13.875110
siesta:     Bulk bias =       0.000000
siesta:   Exch.-corr. =    -204.189727
siesta:  Ion-electron =   -2278.973708
siesta:       Ion-ion =     103.880312
siesta:       Ekinion =       0.683571
siesta: D3 dispersion =       0.000000
siesta:         Total =    -897.626053
siesta:         Fermi =      -5.761696

siesta: Atomic forces (eV/Ang):
siesta:      1    0.889575    0.546137   -0.106713
siesta:      2   -0.892091   -0.550280    0.108329
siesta:      3    1.223308    0.002728   -1.657595
siesta:      4   -1.223388   -0.002825    1.657567
siesta: ----------------------------------------
siesta:    Tot   -0.002597   -0.004240    0.001587

siesta: Stress tensor (static) (eV/Ang**3):
siesta:    -0.000275   -0.000595   -0.000834
siesta:    -0.000595   -0.000361    0.000069
siesta:    -0.000834    0.000069    0.001279

siesta: Cell volume =       1000.001196 Ang**3

siesta: Pressure (static):
siesta:                Solid            Molecule  Units
siesta:          -0.00000233         -0.00000002  Ry/Bohr**3
siesta:          -0.00021405         -0.00000196  eV/Ang**3
siesta:          -0.34293909         -0.00313427  kBar
(Free)E+ p_basis*V_orbitals  =        -897.620230
(Free)Eharris+ p_basis*V_orbitals  =        -897.620230

siesta: Electric dipole (a.u.)  =    0.000000    0.000154    0.000537
siesta: Electric dipole (Debye) =    0.000000    0.000392    0.001366

cite: Please see "xoc.bib" for an exhaustive BiBTeX file.
cite: Please clearly indicate Siesta version in published work: 5.2.1
cite: This calculation has made use of the following articles
cite: which are encouraged to be cited in a published work.
        Primary SIESTA paper
          DOI: www.doi.org/10.1088/0953-8984/14/11/302


timer: Elapsed wall time (sec) =     389.924
timer: CPU execution times (sec):

Routine            Calls   Time/call    Tot.time        %
siesta                 1    1418.268    1418.268   100.00
Setup                  1       0.862       0.862     0.06
bands                  1       0.000       0.000     0.00
KSV_init               1       0.000       0.000     0.00
IterGeom             200       7.087    1417.405    99.94
geom_init            200       0.223      44.621     3.15
state_init           200       0.001       0.160     0.01
hsparse              200       0.000       0.010     0.00
overlap              200       0.001       0.111     0.01
Setup_H0             200       0.101      20.118     1.42
naefs                400       0.000       0.008     0.00
dnaefs               400       0.000       0.005     0.00
MolMec               400       0.000       0.000     0.00
kinefsm              400       0.000       0.118     0.01
nlefsm               400       0.002       0.620     0.04
DHSCF_Init           200       0.098      19.511     1.38
DHSCF1               200       0.008       1.682     0.12
InitMesh             200       0.008       1.679     0.12
INITMESH             200       0.000       0.001     0.00
DHSCF2               200       0.089      17.828     1.26
REMESH               200       0.004       0.720     0.05
REORD               8406       0.002      18.011     1.27
PHION                200       0.044       8.739     0.62
COMM_BSC           11412       0.002      22.648     1.60
POISON              2903       0.162     469.601    33.11
fft                 5806       0.057     330.642    23.31
setup_H             2503       0.541    1354.254    95.49
DHSCF               2703       0.515    1391.686    98.13
DHSCF3              2703       0.509    1376.507    97.06
rhoofd              2703       0.037     100.513     7.09
XC                  2703       0.245     662.601    46.72
GXC-CellXC          2703       0.231     624.326    44.02
gridxc@cellXC       2703       0.231     624.261    44.02
vmat                2703       0.004      11.307     0.80
IterSCF             2303       0.579    1332.932    93.98
compute_dm          2303       0.001       2.711     0.19
diagon              2303       0.001       2.676     0.19
r-eigvec            2303       0.001       2.267     0.16
r-buildHS           2303       0.000       0.006     0.00
rdiag               2303       0.001       2.250     0.16
rdiag1              2303       0.000       0.012     0.00
rdiag2              2303       0.000       0.033     0.00
rdiag3              2303       0.001       2.065     0.15
rdiag4              2303       0.000       0.107     0.01
r-buildD            2303       0.000       0.266     0.02
MIXER               2103       0.000       0.047     0.00
PostSCF              200       0.199      39.747     2.80
FINAL_HF             200       0.199      39.744     2.80
DHSCF4               200       0.076      15.170     1.07
dfscf                200       0.056      11.284     0.80
overfsm              200       0.000       0.036     0.00
writeHSX             200       0.000       0.018     0.00
state_analysis       200       0.000       0.021     0.00
siesta_move          200       0.000       0.048     0.00
Analysis               1       0.000       0.000     0.00
optical                1       0.000       0.000     0.00
  

>> End of run:  24-MAR-2025  16:54:05
Job completed
Job completed
