Executable      : siesta
Version         : 5.2.1
Architecture    : x86_64
Compiler version: GNU-13.3.0
Compiler flags  : -march=nocona -mtune=haswell -ftree-vectorize -fPIC -fstack-protector-strong -fno-plt -O2 -ffunction-sections -pipe -isystem <prefix>/include -I<prefix>/_build_env/include -fdebug-prefix-map=<prefix>/work=/usr/local/src/conda/siesta-5.2.1 -fdebug-prefix-map=<prefix>=/usr/local/src/conda-prefix -I<prefix>/lib -fallow-argument-mismatch -O3
Parallelisations: none
NetCDF support
NetCDF-4 support
Lua support
DFT-D3 support

Runtime information:
* Directory : /home/samba/homes/convidat/Desktop/Simulacions/0.36
* Running in serial mode.
>> Start of run:  25-MAR-2025  17:25:02

                           *********************** 
                           *  WELCOME TO SIESTA  * 
                           *********************** 

 NOTE: Siesta V5 introduces some new defaults for basis-set generation
 NOTE: which might lead to slightly different numerical results.
 NOTE: Please see the manual for full details and compatibility measures.


reinit: Reading from file xoc.fdf

reinit: -----------------------------------------------------------------------
reinit: System Name: H2 + O2 -> H2O2 reaction
reinit: -----------------------------------------------------------------------
reinit: System Label: xoc
reinit: -----------------------------------------------------------------------

initatom: Reading input for the pseudopotentials and atomic orbitals ----------
Species number:   1 Atomic number:    8 Label: O
Species number:   2 Atomic number:    1 Label: H

Ground state valence configuration (from tables):   2s02  2p04  3d00  4f00
Ground state valence configuration (from tables):   1s01  2p00  3d00  4f00

---- Processing specs for species: O
Reading pseudopotential information in formatted form from:
  O.psf

---- Processing specs for species: H
Reading pseudopotential information in unformatted form from:
  H.vps

---- Pseudopotential check for O 

Pseudopotential generated from a fully relativistic atomic calculation
There are spin-orbit semi-local pseudopotentials available

Pseudized shells:
2s( 2.00) rc: 1.14
2p( 4.00) rc: 1.14
3d( 0.00) rc: 1.14
4f( 0.00) rc: 1.14
Valence configuration for ps generation: (assumed as above)

---- Pseudopotential check for H 

Pseudized shells:
1s( 1.00) rc: 1.25
2p( 0.00) rc: 1.25
3d( 0.00) rc: 1.25
4f( 0.00) rc: 1.25
Valence configuration for ps generation: (assumed as above)
For O, standard SIESTA heuristics set lmxkb to 3
 (one more than the basis l, including polarization orbitals).
Use PS.lmax or PS.KBprojectors blocks to override.
For H, standard SIESTA heuristics set lmxkb to 2
 (one more than the basis l, including polarization orbitals).
Use PS.lmax or PS.KBprojectors blocks to override.

<basis_specs>
===============================================================================
O                    Z=   8    Mass=  15.999        Charge= 0.17977+309
Lmxo=2 Lmxkb= 3    BasisType=split      Semic=F
L=0  Nsemic=0  Cnfigmx=2
          i=1  nzeta=1  polorb=0  (2s)
            splnorm:   0.15000    
               vcte:    40.000    
               rinn:  -0.90000    
               qcoe:    0.0000    
               qyuk:    0.0000    
               qwid:   0.10000E-01
                rcs:    0.0000    
            lambdas:    1.0000    
L=1  Nsemic=0  Cnfigmx=2
          i=1  nzeta=1  polorb=1  (2p)  (to be polarized perturbatively)
            splnorm:   0.15000    
               vcte:    40.000    
               rinn:  -0.90000    
               qcoe:    0.0000    
               qyuk:    0.0000    
               qwid:   0.10000E-01
                rcs:    0.0000    
            lambdas:    1.0000    
L=2  Nsemic=0  Cnfigmx=3
          i=1  nzeta=0  polorb=0  (3d)  (perturbative polarization orbital) (from 2p)
-------------------------------------------------------------------------------
L=0  Nkbl=1  erefs: 0.17977+309
L=1  Nkbl=1  erefs: 0.17977+309
L=2  Nkbl=1  erefs: 0.17977+309
L=3  Nkbl=1  erefs: 0.17977+309
===============================================================================
</basis_specs>

Using PAO.SplitTailNorm
atom: Called for O                     (Z =   8)
Maximum radius (at nrval) set to   50.00000 8518

read_vps: Pseudopotential generation method:
read_vps: ATM3      Troullier-Martins                       
Valence charge in pseudo generation:    6.00000

read_vps: Pseudopotential includes a core correction:
read_vps: Pseudo-core for xc-correction

xc_check: Exchange-correlation functional:
xc_check: GGA Perdew, Burke & Ernzerhof 1996
V l=0 = -2*Zval/r beyond r=  1.1355
V l=1 = -2*Zval/r beyond r=  1.1355
V l=2 = -2*Zval/r beyond r=  1.1309
V l=3 = -2*Zval/r beyond r=  1.1286
All V_l potentials equal beyond r=  1.1355
This should be close to max(r_c) in ps generation
All pots = -2*Zval/r beyond r=  1.1355
Using small-core scheme (local charge) for Vlocal

VLOCAL_FROM_CHLOCAL: 99.0% of the norm of Vloc inside     33.667 Ry
VLOCAL_FROM_CHLOCAL: 99.9% of the norm of Vloc inside     76.727 Ry
atom: Maximum radius for chlocal:    1.37241
atom: Maximum radius for r*vlocal+2*Zval:    1.25469

KBgen: Kleinman-Bylander projectors: 
GHOST: No ghost state for L =  0
   l= 0   rc=  1.357289   el= -1.759790   Ekb=  9.151830   kbcos=  0.327271
GHOST: No ghost state for L =  1
   l= 1   rc=  1.345038   el= -0.663797   Ekb= -7.991133   kbcos= -0.393963
GHOST: No ghost state for L =  2
   l= 2   rc=  1.779310   el=  0.012956   Ekb= -1.983219   kbcos= -0.003702
GHOST: No ghost state for L =  3
   l= 3   rc=  2.085579   el=  0.019231   Ekb= -0.873623   kbcos= -0.000360

KBgen: Total number of Kleinman-Bylander projectors:  16
atom: -------------------------------------------------------------------------

atom: SANKEY-TYPE ORBITALS:

SPLIT: Orbitals with angular momentum L= 0

SPLIT: Basis orbitals for state 2s

SPLIT: PAO cut-off radius determined from an
SPLIT: energy shift=  0.010000 Ry
Split based on tail norm

   izeta = 1
                 lambda =    1.000000
                     rc =    3.532490
                 energy =   -1.748682
                kinetic =    1.612754
    potential(screened) =   -3.361436
       potential(ionic) =  -11.306460

SPLIT: Orbitals with angular momentum L= 1

SPLIT: Basis orbitals for state 2p

SPLIT: PAO cut-off radius determined from an
SPLIT: energy shift=  0.010000 Ry
Split based on tail norm

   izeta = 1
                 lambda =    1.000000
                     rc =    4.299534
                 energy =   -0.652755
                kinetic =    4.913628
    potential(screened) =   -5.566382
       potential(ionic) =  -13.292903

POLgen: Perturbative polarization orbital with L=  2

POLgen: Polarization orbital for state 2p
Split based on tail norm

   izeta = 1
                     rc =    4.299534
                 energy =    2.258078
                kinetic =    4.298689
    potential(screened) =   -2.040611
       potential(ionic) =   -8.188336
atom: Total number of Sankey-type orbitals:  9

atm_pop: Valence configuration (for local Pseudopot. screening):
 2s( 2.00)                                                            
 2p( 4.00)                                                            
 3d( 0.00)                                                            
Vna: chval, zval:    6.00000   6.00000

Vna:  Cut-off radius for the neutral-atom potential:   4.299534
comcore: Pseudo-core radius Rcore=  1.364142

atom: _________________________________________________________________________

<basis_specs>
===============================================================================
H                    Z=   1    Mass=  1.0080        Charge= 0.17977+309
Lmxo=1 Lmxkb= 2    BasisType=split      Semic=F
L=0  Nsemic=0  Cnfigmx=1
          i=1  nzeta=1  polorb=1  (1s)  (to be polarized perturbatively)
            splnorm:   0.15000    
               vcte:    40.000    
               rinn:  -0.90000    
               qcoe:    0.0000    
               qyuk:    0.0000    
               qwid:   0.10000E-01
                rcs:    0.0000    
            lambdas:    1.0000    
L=1  Nsemic=0  Cnfigmx=2
          i=1  nzeta=0  polorb=0  (2p)  (perturbative polarization orbital) (from 1s)
-------------------------------------------------------------------------------
L=0  Nkbl=1  erefs: 0.17977+309
L=1  Nkbl=1  erefs: 0.17977+309
L=2  Nkbl=1  erefs: 0.17977+309
===============================================================================
</basis_specs>

Using PAO.SplitTailNorm
atom: Called for H                     (Z =   1)
Maximum radius (at nrval) set to   50.00000 8518

read_vps: Pseudopotential generation method:
read_vps: ATM3      Troullier-Martins                       
Valence charge in pseudo generation:    1.00000

xc_check: Exchange-correlation functional:
xc_check: GGA Perdew, Burke & Ernzerhof 1996
V l=0 = -2*Zval/r beyond r=  1.2384
V l=1 = -2*Zval/r beyond r=  1.2321
V l=2 = -2*Zval/r beyond r=  1.2235
All V_l potentials equal beyond r=  1.2371
This should be close to max(r_c) in ps generation
All pots = -2*Zval/r beyond r=  1.2384
Using small-core scheme (local charge) for Vlocal

VLOCAL_FROM_CHLOCAL: 99.0% of the norm of Vloc inside     28.363 Ry
VLOCAL_FROM_CHLOCAL: 99.9% of the norm of Vloc inside     64.639 Ry
atom: Maximum radius for chlocal:    1.44620
atom: Maximum radius for r*vlocal+2*Zval:    1.31026

KBgen: Kleinman-Bylander projectors: 
GHOST: No ghost state for L =  0
   l= 0   rc=  1.362769   el= -0.477200   Ekb= -2.026093   kbcos= -0.345051
GHOST: No ghost state for L =  1
   l= 1   rc=  1.431710   el=  0.007219   Ekb= -0.445752   kbcos= -0.023729
GHOST: No ghost state for L =  2
   l= 2   rc=  1.471166   el=  0.012944   Ekb= -0.141918   kbcos= -0.003041

KBgen: Total number of Kleinman-Bylander projectors:   9
atom: -------------------------------------------------------------------------

atom: SANKEY-TYPE ORBITALS:

SPLIT: Orbitals with angular momentum L= 0

SPLIT: Basis orbitals for state 1s

SPLIT: PAO cut-off radius determined from an
SPLIT: energy shift=  0.010000 Ry
Split based on tail norm

   izeta = 1
                 lambda =    1.000000
                     rc =    5.232664
                 energy =   -0.466073
                kinetic =    0.944036
    potential(screened) =   -1.410108
       potential(ionic) =   -1.935607

POLgen: Perturbative polarization orbital with L=  1

POLgen: Polarization orbital for state 1s
Split based on tail norm

   izeta = 1
                     rc =    5.232664
                 energy =    0.681103
                kinetic =    1.331928
    potential(screened) =   -0.650824
       potential(ionic) =   -1.138826
atom: Total number of Sankey-type orbitals:  4

atm_pop: Valence configuration (for local Pseudopot. screening):
 1s( 1.00)                                                            
 2p( 0.00)                                                            
Vna: chval, zval:    1.00000   1.00000

Vna:  Cut-off radius for the neutral-atom potential:   5.232664

atom: _________________________________________________________________________

prinput: Basis input 

PAO.BasisType split     

%block ChemicalSpeciesLabel
    1    8 O                       # Species index, atomic number, species label
    2    1 H                       # Species index, atomic number, species label
%endblock ChemicalSpeciesLabel

%block PAO.Basis                 # Define Basis set
# WARNING: This information might be incomplete!
O                     2                    # Species label, number of l-shells
 n=2   0   1                         # n, l, Nzeta 
   3.532   
   1.000   
 n=2   1   1 P   1                   # n, l, Nzeta, Polarization, NzetaPol
   4.300   
   1.000   
H                     1                    # Species label, number of l-shells
 n=1   0   1 P   1                   # n, l, Nzeta, Polarization, NzetaPol
   5.233   
   1.000   
%endblock PAO.Basis

prinput: ----------------------------------------------------------------------

Dumping basis to NetCDF file O.ion.nc
Dumping basis to NetCDF file H.ion.nc
coor:   Atomic-coordinates input format  =     Cartesian coordinates
coor:                                          (in Angstroms)

ioxv: Reading coordinates and velocities from file
! Info in XV file prevails over previous structure input
WARNING: xoc.VERLET_RESTART not found--reading only XV file and moving back 1 time step using Euler

siesta: Atomic coordinates (Bohr) and species
siesta:      2.54735  -0.00100  -0.00070  1        1
siesta:      5.01155  -0.00100  -0.00070  1        2
siesta:     12.90289   0.01600   0.01130  2        3
siesta:     14.27278   0.01600   0.01130  2        4

siesta: System type = chain     

initatomlists: Number of atoms, orbitals, and projectors:      4    26    50

coxmol: Writing XMOL coordinates into file xoc.xyz                                                                                                                                                                                                                             

siesta: ******************** Simulation parameters ****************************
siesta:
siesta: The following are some of the parameters of the simulation.
siesta: A complete list of the parameters used, including default values,
siesta: can be found in file out.fdf
siesta:
redata: Spin configuration                          = none
redata: Number of spin components                   = 1
redata: Time-Reversal Symmetry                      = T
redata: Spin spiral                                 = F
redata: Long output                                 =   F
redata: Number of Atomic Species                    =        2
redata: Charge density info will appear in .RHO file
redata: Write Mulliken charges (when)               = none
redata: Write Mulliken Pop.                         = NO
redata: Write Hirshfeld charges (when)              = none
redata: Write Voronoi charges (when)                = none
redata: Write spin charge (when)                    = none
redata: Matel table size (NRTAB)                    =     1024
redata: Mesh Cutoff                                 =   200.0000 Ry
redata: Net charge of the system                    =     0.0000 |e|
redata: Min. number of SCF Iter                     =        0
redata: Max. number of SCF Iter                     =      250
redata: SCF convergence failure will abort job
redata: SCF mix quantity                            = Hamiltonian
redata: Mix DM or H after convergence               =   F
redata: Recompute H after scf cycle                 =   F
redata: Mix DM in first SCF step                    =   T
redata: Write Pulay info on disk                    =   F
redata: New DM Occupancy tolerance                  = 0.000000000001
redata: No kicks to SCF
redata: DM Mixing Weight for Kicks                  =     0.5000
redata: Require Harris convergence for SCF          =   F
redata: Harris energy tolerance for SCF             =     0.000100 eV
redata: Require DM convergence for SCF              =   T
redata: DM tolerance for SCF                        =     0.000300
redata: Require EDM convergence for SCF             =   F
redata: EDM tolerance for SCF                       =     0.001000 eV
redata: Require H convergence for SCF               =   T
redata: Hamiltonian tolerance for SCF               =     0.001000 eV
redata: Require (free) Energy convergence for SCF   =   F
redata: (free) Energy tolerance for SCF             =     0.000100 eV
redata: Using DFT-D3 dispersion                     =   F
redata: Using Saved Data (generic)                  =   F
redata: Use continuation files for DM               =   T
redata: Neglect nonoverlap interactions             =   F
redata: Method of Calculation                       = Diagonalization
redata: Electronic Temperature                      =   290.1130 K
redata: Fix the spin of the system                  =   F
redata: Max. number of TDED Iter                    =        1
redata: Number of TDED substeps                     =        3
redata: Dynamics option                             = Verlet MD run
redata: Initial MD time step                        =        1
redata:   Final MD time step                        =      200
redata: Length of MD time step                      =     1.0000 fs
redata: Initial Temperature of MD run               =     0.0000 K
redata: Perform a MD quench                         =   F
mix.SCF: Pulay mixing                            = Pulay
mix.SCF:    Variant                              = stable
mix.SCF:    History steps                        = 6
mix.SCF:    Linear mixing weight                 =     0.020000
mix.SCF:    Mixing weight                        =     0.020000
mix.SCF:    SVD condition                        = 0.1000E-07
redata: Save all siesta data in one NC              =   F
redata: ***********************************************************************

%block SCF.Mixers
  Pulay
%endblock SCF.Mixers

%block SCF.Mixer.Pulay
  # Mixing method
  method pulay
  variant stable

  # Mixing options
  weight 0.0200
  weight.linear 0.0200
  history 6
%endblock SCF.Mixer.Pulay

Size of DM history Fstack: 1
Total number of electrons:    14.000000
Total ionic charge:    14.000000
 Kpoints in:            1 . Kpoints trimmed:            1

siesta: k-grid: Number of k-points = 1
siesta: k-points from Monkhorst-Pack grid
siesta: k-cutoff (effective) =     5.000 Ang
siesta: k-point supercell and displacements
siesta: k-grid:     1     0     0      0.000
siesta: k-grid:     0     1     0      0.000
siesta: k-grid:     0     0     1      0.000

diag: Algorithm                                     = D&C
diag: Used triangular part                          = Lower
diag: Absolute tolerance                            =  0.100E-15
diag: Orthogonalization factor                      =  0.100E-05
diag: Memory factor                                 =  1.0000


ts: **************************************************************
ts: Save H and S matrices                           =    F
ts: Save DM and EDM matrices                        =    F
ts: Only save the overlap matrix S                  =    F
ts: **************************************************************

************************ Begin: TS CHECKS AND WARNINGS ************************
************************ End: TS CHECKS AND WARNINGS **************************


                     ====================================
                        Begin MD step =      1
                     ====================================

outcell: Unit cell vectors (Ang):
       10.000004    0.000000    0.000000
        0.000000   10.000004    0.000000
        0.000000    0.000000   10.000004

outcell: Cell vector modules (Ang)   :   10.000004   10.000004   10.000004
outcell: Cell angles (23,13,12) (deg):     90.0000     90.0000     90.0000
outcell: Cell volume (Ang**3)        :   1000.0012
Gamma-point calculation with multiply-connected orbital pairs
Gamma-point calculation with multiply-connected orbital pairs
Folding of H and S implicitly performed
Folding of H and S implicitly performed
<dSpData1D:S at geom step 1
  <sparsity:sparsity for geom step 1
    nrows_g=26 nrows=26 sparsity=1.0000 nnzs=676, refcount: 7>
  <dData1D:(new from dSpData1D) n=676, refcount: 1>
refcount: 1>
new_DM -- step:     1
Initializing Density Matrix...

Attempting to read DM from file... Failed...
DM filled with atomic data:
<dSpData2D:DM initialized from atoms
  <sparsity:sparsity for geom step 1
    nrows_g=26 nrows=26 sparsity=1.0000 nnzs=676, refcount: 8>
  <dData2D:DM n=676 m=1, refcount: 1>
refcount: 1>
No. of atoms with KB's overlaping orbs in proc 0. Max # of overlaps:       4      22

InitMesh: MESH = 90 x 90 x 90 = 729000
InitMesh: Mesh cutoff (required, used) =   200.000   223.865 Ry
New grid distribution [1]: sub = 2

stepf: Fermi-Dirac step function

siesta: Program's energy decomposition (eV):
siesta: Ebs     =      -210.153427
siesta: Eions   =      1581.702395
siesta: Ena     =       338.517809
siesta: Ekin    =       624.680651
siesta: Enl     =       -90.877135
siesta: Eso     =         0.000000
siesta: Edftu   =         0.000000
siesta: DEna    =        14.305578
siesta: DUscf   =         1.601222
siesta: DUext   =         0.000000
siesta: Ex      =      -190.531321
siesta: Ec      =       -13.816947
siesta: Exc     =      -204.348268
siesta: EbV     =         0.000000
siesta: eta*DQ  =         0.000000
siesta: Emadel  =         0.000000
siesta: Emeta   =         0.000000
siesta: Emolmec =         0.000000
siesta: Ekinion =         0.000000
siesta: Eharris =      -900.238251
siesta: Etot    =      -897.822538
siesta: FreeEng =      -897.891853

        iscf     Eharris(eV)        E_KS(eV)     FreeEng(eV)     dDmax    Ef(eV) dHmax(eV)
   scf:    1     -900.238251     -897.822538     -897.891853  0.774869 -4.685385  2.424656
timer: Routine,Calls,Time,% = IterSCF        1       0.572  25.28
   scf:    2     -897.860494     -897.841574     -897.910889  0.001845 -4.717996  2.358641
   scf:    3     -898.283284     -898.126576     -898.195891  0.064670 -5.797685  0.206528
   scf:    4     -898.126682     -898.128001     -898.197316  0.009084 -5.712710  0.382139
   scf:    5     -898.131183     -898.130036     -898.199351  0.008129 -5.920773  0.047821
   scf:    6     -898.130211     -898.130193     -898.199508  0.001846 -5.905285  0.015748
mix: Pulay -- inversion failed, > SVD [rank/size] 4 / 5
   scf:    7     -898.130205     -898.130199     -898.199514  0.000086 -5.906490  0.013184
   scf:    8     -898.130223     -898.130213     -898.199528  0.000411 -5.908642  0.001855
   scf:    9     -898.130214     -898.130214     -898.199529  0.000337 -5.909111  0.000182
   scf:   10     -898.130214     -898.130214     -898.199529  0.000006 -5.909058  0.000165

SCF Convergence by DM+H criterion
max |DM_out - DM_in|         :     0.0000057040
max |H_out - H_in|      (eV) :     0.0001648668
SCF cycle converged after 10 iterations

Using DM_out to compute the final energy and forces
No. of atoms with KB's overlaping orbs in proc 0. Max # of overlaps:       4      22

siesta: E_KS(eV) =             -898.1302

siesta: E_KS - E_eggbox =      -898.1302

siesta: Atomic forces (eV/Ang):
----------------------------------------
   Tot    0.007900    0.000377    0.000280
----------------------------------------
   Max    5.167367
   Res    2.106026    sqrt( Sum f_i^2 / 3N )
----------------------------------------
   Max    5.167367    constrained

Stress tensor Voigt[x,y,z,yz,xz,xy] (kbar):      -18.17       -0.42       -0.25       -0.10       -0.04        0.20
(Free)E + p*V (eV/cell)     -894.2823
Target enthalpy (eV/cell)     -898.1995

siesta: Stress tensor (static) (eV/Ang**3):
        -0.003685   -0.000000   -0.000000
        -0.000000    0.000006    0.000000
        -0.000000    0.000000    0.000006

siesta: Pressure (static):          1.96163715  kBar

siesta: Stress tensor (total) (eV/Ang**3):
        -0.011339    0.000127   -0.000024
         0.000127   -0.000259   -0.000060
        -0.000024   -0.000060   -0.000154

siesta: Pressure (total):          6.27601984  kBar

siesta: Temp_ion =   10416.328 K

                     ====================================
                        Begin MD step =      2
                     ====================================

outcell: Unit cell vectors (Ang):
       10.000004    0.000000    0.000000
        0.000000   10.000004    0.000000
        0.000000    0.000000   10.000004

outcell: Cell vector modules (Ang)   :   10.000004   10.000004   10.000004
outcell: Cell angles (23,13,12) (deg):     90.0000     90.0000     90.0000
outcell: Cell volume (Ang**3)        :   1000.0012
<dSpData1D:S at geom step 2
  <sparsity:sparsity for geom step 2
    nrows_g=26 nrows=26 sparsity=.9763 nnzs=660, refcount: 7>
  <dData1D:(new from dSpData1D) n=660, refcount: 1>
refcount: 1>
new_DM -- step:     2
Re-using DM from previous geometries...
Number of DMs in history: 1
 DM extrapolation coefficients: 
1   1.00000
New DM after history re-use:
<dSpData2D:SpM extrapolated using coords
  <sparsity:sparsity for geom step 2
    nrows_g=26 nrows=26 sparsity=.9763 nnzs=660, refcount: 9>
  <dData2D:(temp array for extrapolation) n=660 m=1, refcount: 1>
refcount: 1>
Note: For starting DM, Qtot, Tr[D*S] =         14.00000000         13.97895816
No. of atoms with KB's overlaping orbs in proc 0. Max # of overlaps:       4      18

InitMesh: MESH = 90 x 90 x 90 = 729000
InitMesh: Mesh cutoff (required, used) =   200.000   223.865 Ry
New grid distribution [1]: sub = 2

        iscf     Eharris(eV)        E_KS(eV)     FreeEng(eV)     dDmax    Ef(eV) dHmax(eV)
   scf:    1     -898.107706     -898.328156     -898.397471  0.012560 -5.642573  0.281571
   scf:    2     -898.326737     -898.328331     -898.397637  0.011314 -5.892338  0.131368
   scf:    3     -898.329592     -898.329026     -898.398338  0.004221 -5.835259  0.072486
   scf:    4     -898.329027     -898.329198     -898.398508  0.011564 -5.847513  0.025483
   scf:    5     -898.329150     -898.329255     -898.398568  0.009525 -5.850756  0.020341
   scf:    6     -898.329316     -898.329288     -898.398601  0.001119 -5.869145  0.013306
   scf:    7     -898.329318     -898.329312     -898.398627  0.002813 -5.864747  0.000950
   scf:    8     -898.329312     -898.329312     -898.398626  0.000203 -5.865142  0.000250

SCF Convergence by DM+H criterion
max |DM_out - DM_in|         :     0.0002031223
max |H_out - H_in|      (eV) :     0.0002495464
SCF cycle converged after 8 iterations

Using DM_out to compute the final energy and forces
No. of atoms with KB's overlaping orbs in proc 0. Max # of overlaps:       4      18

siesta: E_KS(eV) =             -898.3293

siesta: Atomic forces (eV/Ang):
----------------------------------------
   Tot    0.000694    0.000169    0.000169
----------------------------------------
   Max    2.718632
   Res    1.134187    sqrt( Sum f_i^2 / 3N )
----------------------------------------
   Max    2.718632    constrained

Stress tensor Voigt[x,y,z,yz,xz,xy] (kbar):      -16.66       -0.42       -0.26       -0.11       -0.27        0.04
(Free)E + p*V (eV/cell)     -894.7899
Target enthalpy (eV/cell)     -898.3986

siesta: Stress tensor (static) (eV/Ang**3):
        -0.002744   -0.000104   -0.000145
        -0.000104    0.000001   -0.000007
        -0.000145   -0.000007   -0.000004

siesta: Pressure (static):          1.46739109  kBar

siesta: Stress tensor (total) (eV/Ang**3):
        -0.010398    0.000023   -0.000169
         0.000023   -0.000264   -0.000066
        -0.000169   -0.000066   -0.000164

siesta: Pressure (total):          5.78177378  kBar

siesta: Temp_ion =   10807.873 K

                     ====================================
                        Begin MD step =      3
                     ====================================

outcell: Unit cell vectors (Ang):
       10.000004    0.000000    0.000000
        0.000000   10.000004    0.000000
        0.000000    0.000000   10.000004

outcell: Cell vector modules (Ang)   :   10.000004   10.000004   10.000004
outcell: Cell angles (23,13,12) (deg):     90.0000     90.0000     90.0000
outcell: Cell volume (Ang**3)        :   1000.0012
Gamma-point calculation with multiply-connected orbital pairs
Gamma-point calculation with multiply-connected orbital pairs
Folding of H and S implicitly performed
Folding of H and S implicitly performed
<dSpData1D:S at geom step 3
  <sparsity:sparsity for geom step 3
    nrows_g=26 nrows=26 sparsity=1.0000 nnzs=676, refcount: 7>
  <dData1D:(new from dSpData1D) n=676, refcount: 1>
refcount: 1>
new_DM -- step:     3
Re-using DM from previous geometries...
Number of DMs in history: 1
 DM extrapolation coefficients: 
1   1.00000
New DM after history re-use:
<dSpData2D:SpM extrapolated using coords
  <sparsity:sparsity for geom step 3
    nrows_g=26 nrows=26 sparsity=1.0000 nnzs=676, refcount: 9>
  <dData2D:(temp array for extrapolation) n=676 m=1, refcount: 1>
refcount: 1>
Note: For starting DM, Qtot, Tr[D*S] =         14.00000000         13.94834722
No. of atoms with KB's overlaping orbs in proc 0. Max # of overlaps:       4      22

InitMesh: MESH = 90 x 90 x 90 = 729000
InitMesh: Mesh cutoff (required, used) =   200.000   223.865 Ry
New grid distribution [1]: sub = 2

        iscf     Eharris(eV)        E_KS(eV)     FreeEng(eV)     dDmax    Ef(eV) dHmax(eV)
   scf:    1     -898.077607     -898.418991     -898.488305  0.024331 -5.314947  0.623888
   scf:    2     -898.408557     -898.417394     -898.486565  0.032415 -5.875436  0.253940
   scf:    3     -898.422786     -898.420365     -898.489630  0.012193 -5.771161  0.156053
   scf:    4     -898.418787     -898.421237     -898.490488  0.037406 -5.797025  0.053003
   scf:    5     -898.421775     -898.422042     -898.491355  0.023214 -5.802510  0.041469
   scf:    6     -898.422135     -898.422092     -898.491406  0.001055 -5.829930  0.034245
   scf:    7     -898.422265     -898.422203     -898.491518  0.002398 -5.827592  0.001979
   scf:    8     -898.422203     -898.422203     -898.491518  0.000480 -5.827848  0.001589
   scf:    9     -898.422203     -898.422203     -898.491518  0.000161 -5.828661  0.000868

SCF Convergence by DM+H criterion
max |DM_out - DM_in|         :     0.0001613374
max |H_out - H_in|      (eV) :     0.0008675053
SCF cycle converged after 9 iterations

Using DM_out to compute the final energy and forces
No. of atoms with KB's overlaping orbs in proc 0. Max # of overlaps:       4      22

siesta: E_KS(eV) =             -898.4222

siesta: Atomic forces (eV/Ang):
----------------------------------------
   Tot    0.000650   -0.000066    0.000219
----------------------------------------
   Max    1.041654
   Res    0.489281    sqrt( Sum f_i^2 / 3N )
----------------------------------------
   Max    1.041654    constrained

Stress tensor Voigt[x,y,z,yz,xz,xy] (kbar):      -13.91       -0.42       -0.25       -0.10       -0.27       -0.01
(Free)E + p*V (eV/cell)     -895.4586
Target enthalpy (eV/cell)     -898.4915

siesta: Stress tensor (static) (eV/Ang**3):
        -0.000739    0.000011    0.000073
         0.000011    0.000008    0.000006
         0.000073    0.000006    0.000014

siesta: Pressure (static):          0.38266054  kBar

siesta: Stress tensor (total) (eV/Ang**3):
        -0.008681   -0.000009   -0.000169
        -0.000009   -0.000262   -0.000061
        -0.000169   -0.000061   -0.000156

siesta: Pressure (total):          4.85921903  kBar

siesta: Temp_ion =   11039.900 K

                     ====================================
                        Begin MD step =      4
                     ====================================

outcell: Unit cell vectors (Ang):
       10.000004    0.000000    0.000000
        0.000000   10.000004    0.000000
        0.000000    0.000000   10.000004

outcell: Cell vector modules (Ang)   :   10.000004   10.000004   10.000004
outcell: Cell angles (23,13,12) (deg):     90.0000     90.0000     90.0000
outcell: Cell volume (Ang**3)        :   1000.0012
<dSpData1D:S at geom step 4
  <sparsity:sparsity for geom step 4
    nrows_g=26 nrows=26 sparsity=1.0000 nnzs=676, refcount: 7>
  <dData1D:(new from dSpData1D) n=676, refcount: 1>
refcount: 1>
new_DM -- step:     4
Re-using DM from previous geometries...
Number of DMs in history: 1
 DM extrapolation coefficients: 
1   1.00000
New DM after history re-use:
<dSpData2D:SpM extrapolated using coords
  <sparsity:sparsity for geom step 4
    nrows_g=26 nrows=26 sparsity=1.0000 nnzs=676, refcount: 9>
  <dData2D:(temp array for extrapolation) n=676 m=1, refcount: 1>
refcount: 1>
Note: For starting DM, Qtot, Tr[D*S] =         14.00000000         13.94488060
No. of atoms with KB's overlaping orbs in proc 0. Max # of overlaps:       4      22

InitMesh: MESH = 90 x 90 x 90 = 729000
InitMesh: Mesh cutoff (required, used) =   200.000   223.865 Ry
New grid distribution [1]: sub = 2

        iscf     Eharris(eV)        E_KS(eV)     FreeEng(eV)     dDmax    Ef(eV) dHmax(eV)
   scf:    1     -897.886261     -898.257601     -898.326908  0.022197 -5.255595  0.677669
   scf:    2     -898.205088     -898.242903     -898.311135  0.100538 -5.851565  0.405782
   scf:    3     -898.263757     -898.254751     -898.323707  0.038551 -5.725714  0.266190
   scf:    4     -898.249608     -898.258627     -898.327769  0.085962 -5.766146  0.106201
   scf:    5     -898.259210     -898.260790     -898.330087  0.046162 -5.770774  0.039742
   scf:    6     -898.261012     -898.260924     -898.330234  0.005079 -5.776476  0.041215
   scf:    7     -898.261211     -898.261111     -898.330426  0.004892 -5.802321  0.002202
   scf:    8     -898.261114     -898.261113     -898.330428  0.000663 -5.801584  0.002455
   scf:    9     -898.261112     -898.261113     -898.330427  0.000673 -5.803013  0.001616
   scf:   10     -898.261113     -898.261113     -898.330427  0.000051 -5.803120  0.001338
   scf:   11     -898.261113     -898.261113     -898.330428  0.000538 -5.803650  0.000113
   scf:   12     -898.261113     -898.261113     -898.330428  0.000001 -5.803649  0.000108

SCF Convergence by DM+H criterion
max |DM_out - DM_in|         :     0.0000005273
max |H_out - H_in|      (eV) :     0.0001084456
SCF cycle converged after 12 iterations

Using DM_out to compute the final energy and forces
No. of atoms with KB's overlaping orbs in proc 0. Max # of overlaps:       4      22

siesta: E_KS(eV) =             -898.2611

siesta: Atomic forces (eV/Ang):
----------------------------------------
   Tot    0.000381   -0.000128    0.000320
----------------------------------------
   Max    2.307399
   Res    1.131146    sqrt( Sum f_i^2 / 3N )
----------------------------------------
   Max    2.307399    constrained

Stress tensor Voigt[x,y,z,yz,xz,xy] (kbar):      -12.27       -0.39       -0.17       -0.04        0.15        0.17
(Free)E + p*V (eV/cell)     -895.6626
Target enthalpy (eV/cell)     -898.3304

siesta: Stress tensor (static) (eV/Ang**3):
         0.000455    0.000183    0.000398
         0.000183    0.000030    0.000044
         0.000398    0.000044    0.000073

siesta: Pressure (static):         -0.29831084  kBar

siesta: Stress tensor (total) (eV/Ang**3):
        -0.007657    0.000108    0.000094
         0.000108   -0.000243   -0.000026
         0.000094   -0.000026   -0.000104

siesta: Pressure (total):          4.27435157  kBar

siesta: Temp_ion =   10674.732 K

                     ====================================
                        Begin MD step =      5
                     ====================================

outcell: Unit cell vectors (Ang):
       10.000004    0.000000    0.000000
        0.000000   10.000004    0.000000
        0.000000    0.000000   10.000004

outcell: Cell vector modules (Ang)   :   10.000004   10.000004   10.000004
outcell: Cell angles (23,13,12) (deg):     90.0000     90.0000     90.0000
outcell: Cell volume (Ang**3)        :   1000.0012
<dSpData1D:S at geom step 5
  <sparsity:sparsity for geom step 5
    nrows_g=26 nrows=26 sparsity=1.0000 nnzs=676, refcount: 7>
  <dData1D:(new from dSpData1D) n=676, refcount: 1>
refcount: 1>
new_DM -- step:     5
Re-using DM from previous geometries...
Number of DMs in history: 1
 DM extrapolation coefficients: 
1   1.00000
New DM after history re-use:
<dSpData2D:SpM extrapolated using coords
  <sparsity:sparsity for geom step 5
    nrows_g=26 nrows=26 sparsity=1.0000 nnzs=676, refcount: 9>
  <dData2D:(temp array for extrapolation) n=676 m=1, refcount: 1>
refcount: 1>
Note: For starting DM, Qtot, Tr[D*S] =         14.00000000         13.96626242
No. of atoms with KB's overlaping orbs in proc 0. Max # of overlaps:       4      22

InitMesh: MESH = 90 x 90 x 90 = 729000
InitMesh: Mesh cutoff (required, used) =   200.000   223.865 Ry
New grid distribution [1]: sub = 2

        iscf     Eharris(eV)        E_KS(eV)     FreeEng(eV)     dDmax    Ef(eV) dHmax(eV)
   scf:    1     -897.851306     -898.103659     -898.172974  0.013009 -5.448648  0.436002
   scf:    2     -898.094461     -898.101537     -898.170810  0.025373 -5.824841  0.252436
   scf:    3     -898.105633     -898.103806     -898.173108  0.009384 -5.738901  0.170346
   scf:    4     -898.103896     -898.104726     -898.174014  0.025956 -5.774347  0.031865
   scf:    5     -898.104937     -898.105059     -898.174373  0.015852 -5.777438  0.026316
   scf:    6     -898.105084     -898.105074     -898.174387  0.001087 -5.788520  0.020246
   scf:    7     -898.105147     -898.105127     -898.174442  0.003568 -5.792408  0.001599
   scf:    8     -898.105126     -898.105127     -898.174441  0.000319 -5.792812  0.000561
   scf:    9     -898.105127     -898.105127     -898.174441  0.000020 -5.792964  0.000488

SCF Convergence by DM+H criterion
max |DM_out - DM_in|         :     0.0000195045
max |H_out - H_in|      (eV) :     0.0004884020
SCF cycle converged after 9 iterations

Using DM_out to compute the final energy and forces
No. of atoms with KB's overlaping orbs in proc 0. Max # of overlaps:       4      22

siesta: E_KS(eV) =             -898.1051

siesta: Atomic forces (eV/Ang):
----------------------------------------
   Tot   -0.000339    0.000355    0.000167
----------------------------------------
   Max    2.900705
   Res    1.420083    sqrt( Sum f_i^2 / 3N )
----------------------------------------
   Max    2.900705    constrained

Stress tensor Voigt[x,y,z,yz,xz,xy] (kbar):      -11.30       -0.33       -0.02        0.06        0.71        0.43
(Free)E + p*V (eV/cell)     -895.7505
Target enthalpy (eV/cell)     -898.1744

siesta: Stress tensor (static) (eV/Ang**3):
         0.000813    0.000295    0.000644
         0.000295    0.000055    0.000088
         0.000644    0.000088    0.000140

siesta: Pressure (static):         -0.53781012  kBar

siesta: Stress tensor (total) (eV/Ang**3):
        -0.007053    0.000265    0.000441
         0.000265   -0.000208    0.000035
         0.000441    0.000035   -0.000011

siesta: Pressure (total):          3.88360200  kBar

siesta: Temp_ion =   10295.699 K

                     ====================================
                        Begin MD step =      6
                     ====================================

outcell: Unit cell vectors (Ang):
       10.000004    0.000000    0.000000
        0.000000   10.000004    0.000000
        0.000000    0.000000   10.000004

outcell: Cell vector modules (Ang)   :   10.000004   10.000004   10.000004
outcell: Cell angles (23,13,12) (deg):     90.0000     90.0000     90.0000
outcell: Cell volume (Ang**3)        :   1000.0012
<dSpData1D:S at geom step 6
  <sparsity:sparsity for geom step 6
    nrows_g=26 nrows=26 sparsity=1.0000 nnzs=676, refcount: 7>
  <dData1D:(new from dSpData1D) n=676, refcount: 1>
refcount: 1>
new_DM -- step:     6
Re-using DM from previous geometries...
Number of DMs in history: 1
 DM extrapolation coefficients: 
1   1.00000
New DM after history re-use:
<dSpData2D:SpM extrapolated using coords
  <sparsity:sparsity for geom step 6
    nrows_g=26 nrows=26 sparsity=1.0000 nnzs=676, refcount: 9>
  <dData2D:(temp array for extrapolation) n=676 m=1, refcount: 1>
refcount: 1>
No. of atoms with KB's overlaping orbs in proc 0. Max # of overlaps:       4      22

InitMesh: MESH = 90 x 90 x 90 = 729000
InitMesh: Mesh cutoff (required, used) =   200.000   223.865 Ry
New grid distribution [1]: sub = 2

        iscf     Eharris(eV)        E_KS(eV)     FreeEng(eV)     dDmax    Ef(eV) dHmax(eV)
   scf:    1     -898.050788     -898.101851     -898.171164  0.012674 -5.768032  0.046691
   scf:    2     -898.090460     -898.098298     -898.167311  0.039927 -5.804537  0.073893
   scf:    3     -898.103089     -898.101633     -898.170924  0.026427 -5.783855  0.035916
   scf:    4     -898.101838     -898.101908     -898.171223  0.011187 -5.795560  0.014391
   scf:    5     -898.101910     -898.101917     -898.171232  0.002332 -5.795932  0.004768
   scf:    6     -898.101920     -898.101919     -898.171234  0.000557 -5.797418  0.002913
   scf:    7     -898.101920     -898.101920     -898.171235  0.000499 -5.800119  0.000256
   scf:    8     -898.101920     -898.101920     -898.171235  0.000154 -5.800111  0.000182

SCF Convergence by DM+H criterion
max |DM_out - DM_in|         :     0.0001536770
max |H_out - H_in|      (eV) :     0.0001822032
SCF cycle converged after 8 iterations

Using DM_out to compute the final energy and forces
No. of atoms with KB's overlaping orbs in proc 0. Max # of overlaps:       4      22

siesta: E_KS(eV) =             -898.1019

siesta: Atomic forces (eV/Ang):
----------------------------------------
   Tot   -0.000797   -0.000140    0.000150
----------------------------------------
   Max    2.892588
   Res    1.465398    sqrt( Sum f_i^2 / 3N )
----------------------------------------
   Max    2.892588    constrained

Stress tensor Voigt[x,y,z,yz,xz,xy] (kbar):      -11.23       -0.28        0.14        0.16        1.12        0.58
(Free)E + p*V (eV/cell)     -895.8056
Target enthalpy (eV/cell)     -898.1712

siesta: Stress tensor (static) (eV/Ang**3):
         0.000627    0.000319    0.000753
         0.000320    0.000071    0.000122
         0.000753    0.000122    0.000190

siesta: Pressure (static):         -0.47430902  kBar

siesta: Stress tensor (total) (eV/Ang**3):
        -0.007011    0.000359    0.000700
         0.000359   -0.000173    0.000101
         0.000700    0.000101    0.000087

siesta: Pressure (total):          3.79010985  kBar

siesta: Temp_ion =   10288.765 K

                     ====================================
                        Begin MD step =      7
                     ====================================

outcell: Unit cell vectors (Ang):
       10.000004    0.000000    0.000000
        0.000000   10.000004    0.000000
        0.000000    0.000000   10.000004

outcell: Cell vector modules (Ang)   :   10.000004   10.000004   10.000004
outcell: Cell angles (23,13,12) (deg):     90.0000     90.0000     90.0000
outcell: Cell volume (Ang**3)        :   1000.0012
<dSpData1D:S at geom step 7
  <sparsity:sparsity for geom step 7
    nrows_g=26 nrows=26 sparsity=.9882 nnzs=668, refcount: 7>
  <dData1D:(new from dSpData1D) n=668, refcount: 1>
refcount: 1>
new_DM -- step:     7
Re-using DM from previous geometries...
Number of DMs in history: 1
 DM extrapolation coefficients: 
1   1.00000
New DM after history re-use:
<dSpData2D:SpM extrapolated using coords
  <sparsity:sparsity for geom step 7
    nrows_g=26 nrows=26 sparsity=.9882 nnzs=668, refcount: 9>
  <dData2D:(temp array for extrapolation) n=668 m=1, refcount: 1>
refcount: 1>
Note: For starting DM, Qtot, Tr[D*S] =         14.00000000         14.03419339
No. of atoms with KB's overlaping orbs in proc 0. Max # of overlaps:       4      22

InitMesh: MESH = 90 x 90 x 90 = 729000
InitMesh: Mesh cutoff (required, used) =   200.000   223.865 Ry
New grid distribution [1]: sub = 2

        iscf     Eharris(eV)        E_KS(eV)     FreeEng(eV)     dDmax    Ef(eV) dHmax(eV)
   scf:    1     -898.406895     -898.256574     -898.325888  0.012970 -6.112249  0.417063
   scf:    2     -898.217272     -898.245070     -898.314283  0.044975 -5.795663  0.449113
   scf:    3     -898.262966     -898.255995     -898.325295  0.024418 -5.935124  0.275590
   scf:    4     -898.255286     -898.257243     -898.326488  0.037376 -5.841656  0.038276
   scf:    5     -898.258069     -898.258061     -898.327376  0.022219 -5.835168  0.023481
   scf:    6     -898.258071     -898.258069     -898.327384  0.001111 -5.837330  0.018895
   scf:    7     -898.258123     -898.258103     -898.327418  0.001004 -5.825610  0.001300
   scf:    8     -898.258103     -898.258103     -898.327418  0.000050 -5.825847  0.000999

SCF Convergence by DM+H criterion
max |DM_out - DM_in|         :     0.0000496491
max |H_out - H_in|      (eV) :     0.0009994575
SCF cycle converged after 8 iterations

Using DM_out to compute the final energy and forces
No. of atoms with KB's overlaping orbs in proc 0. Max # of overlaps:       4      22

siesta: E_KS(eV) =             -898.2581

siesta: Atomic forces (eV/Ang):
----------------------------------------
   Tot   -0.002136    0.000308   -0.000311
----------------------------------------
   Max    2.330806
   Res    1.281979    sqrt( Sum f_i^2 / 3N )
----------------------------------------
   Max    2.330806    constrained

Stress tensor Voigt[x,y,z,yz,xz,xy] (kbar):      -12.40       -0.25        0.22        0.22        1.15        0.49
(Free)E + p*V (eV/cell)     -895.7420
Target enthalpy (eV/cell)     -898.3274

siesta: Stress tensor (static) (eV/Ang**3):
        -0.000038    0.000228    0.000667
         0.000228    0.000068    0.000126
         0.000667    0.000126    0.000194

siesta: Pressure (static):         -0.11931141  kBar

siesta: Stress tensor (total) (eV/Ang**3):
        -0.007737    0.000303    0.000718
         0.000303   -0.000159    0.000137
         0.000718    0.000137    0.000140

siesta: Pressure (total):          4.14223546  kBar

siesta: Temp_ion =   10671.796 K

                     ====================================
                        Begin MD step =      8
                     ====================================

outcell: Unit cell vectors (Ang):
       10.000004    0.000000    0.000000
        0.000000   10.000004    0.000000
        0.000000    0.000000   10.000004

outcell: Cell vector modules (Ang)   :   10.000004   10.000004   10.000004
outcell: Cell angles (23,13,12) (deg):     90.0000     90.0000     90.0000
outcell: Cell volume (Ang**3)        :   1000.0012
<dSpData1D:S at geom step 8
  <sparsity:sparsity for geom step 8
    nrows_g=26 nrows=26 sparsity=1.0000 nnzs=676, refcount: 7>
  <dData1D:(new from dSpData1D) n=676, refcount: 1>
refcount: 1>
new_DM -- step:     8
Re-using DM from previous geometries...
Number of DMs in history: 1
 DM extrapolation coefficients: 
1   1.00000
New DM after history re-use:
<dSpData2D:SpM extrapolated using coords
  <sparsity:sparsity for geom step 8
    nrows_g=26 nrows=26 sparsity=1.0000 nnzs=676, refcount: 9>
  <dData2D:(temp array for extrapolation) n=676 m=1, refcount: 1>
refcount: 1>
Note: For starting DM, Qtot, Tr[D*S] =         14.00000000         14.06015094
No. of atoms with KB's overlaping orbs in proc 0. Max # of overlaps:       4      26

InitMesh: MESH = 90 x 90 x 90 = 729000
InitMesh: Mesh cutoff (required, used) =   200.000   223.865 Ry
New grid distribution [1]: sub = 2

        iscf     Eharris(eV)        E_KS(eV)     FreeEng(eV)     dDmax    Ef(eV) dHmax(eV)
   scf:    1     -898.717890     -898.437988     -898.507302  0.022208 -6.382638  0.782638
   scf:    2     -898.278899     -898.391362     -898.460638  0.049472 -5.804541  0.894867
   scf:    3     -898.464906     -898.437278     -898.506589  0.027541 -6.086114  0.522859
   scf:    4     -898.443324     -898.443476     -898.512757  0.028599 -5.891871  0.043843
   scf:    5     -898.443948     -898.443798     -898.513108  0.009285 -5.887158  0.046556
   scf:    6     -898.443504     -898.443796     -898.513109  0.010326 -5.888758  0.050640
   scf:    7     -898.444084     -898.444002     -898.513317  0.005279 -5.866515  0.003938
   scf:    8     -898.444003     -898.444003     -898.513318  0.000220 -5.867200  0.002338
   scf:    9     -898.444003     -898.444003     -898.513317  0.000383 -5.865682  0.000413
   scf:   10     -898.444003     -898.444003     -898.513318  0.000072 -5.865649  0.000326

SCF Convergence by DM+H criterion
max |DM_out - DM_in|         :     0.0000722043
max |H_out - H_in|      (eV) :     0.0003262800
SCF cycle converged after 10 iterations

Using DM_out to compute the final energy and forces
No. of atoms with KB's overlaping orbs in proc 0. Max # of overlaps:       4      26

siesta: E_KS(eV) =             -898.4440

siesta: Atomic forces (eV/Ang):
----------------------------------------
   Tot    0.002953   -0.000085   -0.000564
----------------------------------------
   Max    1.844278
   Res    0.816811    sqrt( Sum f_i^2 / 3N )
----------------------------------------
   Max    1.844278    constrained

Stress tensor Voigt[x,y,z,yz,xz,xy] (kbar):      -14.98       -0.32        0.10        0.14        0.54        0.01
(Free)E + p*V (eV/cell)     -895.3513
Target enthalpy (eV/cell)     -898.5133

siesta: Stress tensor (static) (eV/Ang**3):
        -0.001315   -0.000050    0.000262
        -0.000050    0.000018    0.000057
         0.000262    0.000057    0.000087

siesta: Pressure (static):          0.64597832  kBar

siesta: Stress tensor (total) (eV/Ang**3):
        -0.009353    0.000003    0.000336
         0.000003   -0.000199    0.000090
         0.000336    0.000090    0.000065

siesta: Pressure (total):          5.06617438  kBar

siesta: Temp_ion =   11103.552 K

                     ====================================
                        Begin MD step =      9
                     ====================================

outcell: Unit cell vectors (Ang):
       10.000004    0.000000    0.000000
        0.000000   10.000004    0.000000
        0.000000    0.000000   10.000004

outcell: Cell vector modules (Ang)   :   10.000004   10.000004   10.000004
outcell: Cell angles (23,13,12) (deg):     90.0000     90.0000     90.0000
outcell: Cell volume (Ang**3)        :   1000.0012
<dSpData1D:S at geom step 9
  <sparsity:sparsity for geom step 9
    nrows_g=26 nrows=26 sparsity=1.0000 nnzs=676, refcount: 7>
  <dData1D:(new from dSpData1D) n=676, refcount: 1>
refcount: 1>
new_DM -- step:     9
Re-using DM from previous geometries...
Number of DMs in history: 1
 DM extrapolation coefficients: 
1   1.00000
New DM after history re-use:
<dSpData2D:SpM extrapolated using coords
  <sparsity:sparsity for geom step 9
    nrows_g=26 nrows=26 sparsity=1.0000 nnzs=676, refcount: 9>
  <dData2D:(temp array for extrapolation) n=676 m=1, refcount: 1>
refcount: 1>
Note: For starting DM, Qtot, Tr[D*S] =         14.00000000         14.06292824
No. of atoms with KB's overlaping orbs in proc 0. Max # of overlaps:       4      26

InitMesh: MESH = 90 x 90 x 90 = 729000
InitMesh: Mesh cutoff (required, used) =   200.000   223.865 Ry
New grid distribution [1]: sub = 2

        iscf     Eharris(eV)        E_KS(eV)     FreeEng(eV)     dDmax    Ef(eV) dHmax(eV)
   scf:    1     -898.685291     -898.396097     -898.465410  0.025197 -6.445869  0.874662
   scf:    2     -898.065759     -898.297684     -898.366780  0.080701 -5.847598  1.259236
   scf:    3     -898.448191     -898.398364     -898.467663  0.052274 -6.198209  0.594272
   scf:    4     -898.400050     -898.403697     -898.472868  0.044278 -5.954894  0.058916
   scf:    5     -898.405715     -898.404955     -898.474235  0.014193 -5.945805  0.053027
   scf:    6     -898.405147     -898.405383     -898.474697  0.016229 -5.948491  0.042094
   scf:    7     -898.405648     -898.405558     -898.474872  0.003555 -5.921368  0.005825
   scf:    8     -898.405561     -898.405561     -898.474875  0.000815 -5.922613  0.002055
   scf:    9     -898.405559     -898.405560     -898.474875  0.000598 -5.921574  0.001359
   scf:   10     -898.405560     -898.405560     -898.474875  0.000029 -5.921538  0.000953

SCF Convergence by DM+H criterion
max |DM_out - DM_in|         :     0.0000288695
max |H_out - H_in|      (eV) :     0.0009527031
SCF cycle converged after 10 iterations

Using DM_out to compute the final energy and forces
No. of atoms with KB's overlaping orbs in proc 0. Max # of overlaps:       4      26

siesta: E_KS(eV) =             -898.4056

siesta: Atomic forces (eV/Ang):
----------------------------------------
   Tot    0.002056   -0.000291   -0.000942
----------------------------------------
   Max    2.113315
   Res    1.111392    sqrt( Sum f_i^2 / 3N )
----------------------------------------
   Max    2.113315    constrained

Stress tensor Voigt[x,y,z,yz,xz,xy] (kbar):      -18.29       -0.54       -0.39       -0.18       -0.82       -0.92
(Free)E + p*V (eV/cell)     -894.4762
Target enthalpy (eV/cell)     -898.4749

siesta: Stress tensor (static) (eV/Ang**3):
        -0.003034   -0.000576   -0.000562
        -0.000576   -0.000120   -0.000152
        -0.000562   -0.000152   -0.000231

siesta: Pressure (static):          1.80758397  kBar

siesta: Stress tensor (total) (eV/Ang**3):
        -0.011417   -0.000573   -0.000513
        -0.000573   -0.000337   -0.000110
        -0.000513   -0.000110   -0.000241

siesta: Pressure (total):          6.40661094  kBar

siesta: Temp_ion =   10994.656 K

                     ====================================
                        Begin MD step =     10
                     ====================================

outcell: Unit cell vectors (Ang):
       10.000004    0.000000    0.000000
        0.000000   10.000004    0.000000
        0.000000    0.000000   10.000004

outcell: Cell vector modules (Ang)   :   10.000004   10.000004   10.000004
outcell: Cell angles (23,13,12) (deg):     90.0000     90.0000     90.0000
outcell: Cell volume (Ang**3)        :   1000.0012
<dSpData1D:S at geom step 10
  <sparsity:sparsity for geom step 10
    nrows_g=26 nrows=26 sparsity=1.0000 nnzs=676, refcount: 7>
  <dData1D:(new from dSpData1D) n=676, refcount: 1>
refcount: 1>
new_DM -- step:    10
Re-using DM from previous geometries...
Number of DMs in history: 1
 DM extrapolation coefficients: 
1   1.00000
New DM after history re-use:
<dSpData2D:SpM extrapolated using coords
  <sparsity:sparsity for geom step 10
    nrows_g=26 nrows=26 sparsity=1.0000 nnzs=676, refcount: 9>
  <dData2D:(temp array for extrapolation) n=676 m=1, refcount: 1>
refcount: 1>
Note: For starting DM, Qtot, Tr[D*S] =         14.00000000         14.03368072
No. of atoms with KB's overlaping orbs in proc 0. Max # of overlaps:       4      26

InitMesh: MESH = 90 x 90 x 90 = 729000
InitMesh: Mesh cutoff (required, used) =   200.000   223.865 Ry
New grid distribution [1]: sub = 2

        iscf     Eharris(eV)        E_KS(eV)     FreeEng(eV)     dDmax    Ef(eV) dHmax(eV)
   scf:    1     -898.382426     -898.196603     -898.265896  0.016828 -6.228470  0.549201
   scf:    2     -897.763576     -898.064685     -898.131799  0.126417 -5.947196  1.303036
   scf:    3     -898.241218     -898.201995     -898.271272  0.098932 -6.155527  0.294085
   scf:    4     -898.178742     -898.196607     -898.265263  0.071163 -6.047196  0.110345
   scf:    5     -898.203457     -898.200387     -898.269381  0.017241 -6.028700  0.083649
   scf:    6     -898.204090     -898.203895     -898.273208  0.037193 -6.013651  0.021207
   scf:    7     -898.203310     -898.203698     -898.272986  0.008469 -5.991993  0.015936
   scf:    8     -898.203919     -898.203935     -898.273249  0.010246 -5.997093  0.001248
   scf:    9     -898.203936     -898.203936     -898.273250  0.000502 -5.996452  0.001351
   scf:   10     -898.203935     -898.203935     -898.273250  0.000183 -5.996560  0.001180
   scf:   11     -898.203935     -898.203935     -898.273250  0.000055 -5.996551  0.000990

SCF Convergence by DM+H criterion
max |DM_out - DM_in|         :     0.0000547910
max |H_out - H_in|      (eV) :     0.0009899334
SCF cycle converged after 11 iterations

Using DM_out to compute the final energy and forces
No. of atoms with KB's overlaping orbs in proc 0. Max # of overlaps:       4      26

siesta: E_KS(eV) =             -898.2039

siesta: Atomic forces (eV/Ang):
----------------------------------------
   Tot    0.003271    0.000020   -0.001763
----------------------------------------
   Max    4.402604
   Res    2.105965    sqrt( Sum f_i^2 / 3N )
----------------------------------------
   Max    4.402604    constrained

Stress tensor Voigt[x,y,z,yz,xz,xy] (kbar):      -19.41       -0.84       -1.07       -0.62       -1.99       -1.66
(Free)E + p*V (eV/cell)     -893.8386
Target enthalpy (eV/cell)     -898.2732

siesta: Stress tensor (static) (eV/Ang**3):
        -0.003829   -0.001029   -0.001321
        -0.001029   -0.000299   -0.000427
        -0.001321   -0.000427   -0.000649

siesta: Pressure (static):          2.55113169  kBar

siesta: Stress tensor (total) (eV/Ang**3):
        -0.012116   -0.001037   -0.001243
        -0.001037   -0.000523   -0.000388
        -0.001243   -0.000388   -0.000665

siesta: Pressure (total):          7.10505469  kBar

siesta: Temp_ion =   10594.795 K

                     ====================================
                        Begin MD step =     11
                     ====================================

outcell: Unit cell vectors (Ang):
       10.000004    0.000000    0.000000
        0.000000   10.000004    0.000000
        0.000000    0.000000   10.000004

outcell: Cell vector modules (Ang)   :   10.000004   10.000004   10.000004
outcell: Cell angles (23,13,12) (deg):     90.0000     90.0000     90.0000
outcell: Cell volume (Ang**3)        :   1000.0012
<dSpData1D:S at geom step 11
  <sparsity:sparsity for geom step 11
    nrows_g=26 nrows=26 sparsity=1.0000 nnzs=676, refcount: 7>
  <dData1D:(new from dSpData1D) n=676, refcount: 1>
refcount: 1>
new_DM -- step:    11
Re-using DM from previous geometries...
Number of DMs in history: 1
 DM extrapolation coefficients: 
1   1.00000
New DM after history re-use:
<dSpData2D:SpM extrapolated using coords
  <sparsity:sparsity for geom step 11
    nrows_g=26 nrows=26 sparsity=1.0000 nnzs=676, refcount: 9>
  <dData2D:(temp array for extrapolation) n=676 m=1, refcount: 1>
refcount: 1>
No. of atoms with KB's overlaping orbs in proc 0. Max # of overlaps:       4      26

InitMesh: MESH = 90 x 90 x 90 = 729000
InitMesh: Mesh cutoff (required, used) =   200.000   223.865 Ry
New grid distribution [1]: sub = 2

        iscf     Eharris(eV)        E_KS(eV)     FreeEng(eV)     dDmax    Ef(eV) dHmax(eV)
   scf:    1     -898.400485     -898.371350     -898.440613  0.029828 -5.924809  0.398298
   scf:    2     -897.942943     -898.239100     -898.303884  0.181063 -6.105345  1.111459
   scf:    3     -898.401553     -898.375106     -898.444391  0.151603 -5.963906  0.168135
   scf:    4     -898.354706     -898.369936     -898.438680  0.068603 -6.028238  0.133705
   scf:    5     -898.377571     -898.375626     -898.444905  0.041893 -6.022298  0.107236
   scf:    6     -898.375867     -898.375951     -898.445266  0.012624 -6.098991  0.015451
   scf:    7     -898.375753     -898.375914     -898.445215  0.007141 -6.093279  0.011195
   scf:    8     -898.375980     -898.375983     -898.445295  0.005764 -6.098691  0.001188
   scf:    9     -898.375983     -898.375983     -898.445296  0.000421 -6.098678  0.000826
   scf:   10     -898.375983     -898.375983     -898.445296  0.000260 -6.099092  0.000708

SCF Convergence by DM+H criterion
max |DM_out - DM_in|         :     0.0002601733
max |H_out - H_in|      (eV) :     0.0007078644
SCF cycle converged after 10 iterations

Using DM_out to compute the final energy and forces
No. of atoms with KB's overlaping orbs in proc 0. Max # of overlaps:       4      26

siesta: E_KS(eV) =             -898.3760

siesta: Atomic forces (eV/Ang):
----------------------------------------
   Tot    0.000354   -0.001019    0.000318
----------------------------------------
   Max    2.587706
   Res    1.295053    sqrt( Sum f_i^2 / 3N )
----------------------------------------
   Max    2.587706    constrained

Stress tensor Voigt[x,y,z,yz,xz,xy] (kbar):      -16.26       -0.82       -1.02       -0.59       -1.33       -1.15
(Free)E + p*V (eV/cell)     -894.6798
Target enthalpy (eV/cell)     -898.4453

siesta: Stress tensor (static) (eV/Ang**3):
        -0.002288   -0.000701   -0.000936
        -0.000701   -0.000249   -0.000360
        -0.000936   -0.000360   -0.000543

siesta: Pressure (static):          1.64471692  kBar

siesta: Stress tensor (total) (eV/Ang**3):
        -0.010151   -0.000716   -0.000832
        -0.000716   -0.000511   -0.000370
        -0.000832   -0.000370   -0.000635

siesta: Pressure (total):          6.03301946  kBar

siesta: Temp_ion =   10934.274 K

                     ====================================
                        Begin MD step =     12
                     ====================================

outcell: Unit cell vectors (Ang):
       10.000004    0.000000    0.000000
        0.000000   10.000004    0.000000
        0.000000    0.000000   10.000004

outcell: Cell vector modules (Ang)   :   10.000004   10.000004   10.000004
outcell: Cell angles (23,13,12) (deg):     90.0000     90.0000     90.0000
outcell: Cell volume (Ang**3)        :   1000.0012
<dSpData1D:S at geom step 12
  <sparsity:sparsity for geom step 12
    nrows_g=26 nrows=26 sparsity=1.0000 nnzs=676, refcount: 7>
  <dData1D:(new from dSpData1D) n=676, refcount: 1>
refcount: 1>
new_DM -- step:    12
Re-using DM from previous geometries...
Number of DMs in history: 1
 DM extrapolation coefficients: 
1   1.00000
New DM after history re-use:
<dSpData2D:SpM extrapolated using coords
  <sparsity:sparsity for geom step 12
    nrows_g=26 nrows=26 sparsity=1.0000 nnzs=676, refcount: 9>
  <dData2D:(temp array for extrapolation) n=676 m=1, refcount: 1>
refcount: 1>
Note: For starting DM, Qtot, Tr[D*S] =         14.00000000         13.96284922
No. of atoms with KB's overlaping orbs in proc 0. Max # of overlaps:       4      26

InitMesh: MESH = 90 x 90 x 90 = 729000
InitMesh: Mesh cutoff (required, used) =   200.000   223.865 Ry
New grid distribution [1]: sub = 2

        iscf     Eharris(eV)        E_KS(eV)     FreeEng(eV)     dDmax    Ef(eV) dHmax(eV)
   scf:    1     -898.308615     -898.482685     -898.551637  0.053864 -5.768586  0.728972
   scf:    2     -897.417725     -898.153460     -898.196649  0.463281 -6.320513  1.057363
   scf:    3     -898.606543     -898.457047     -898.523969  0.287239 -5.991055  0.497511
   scf:    4     -897.850859     -898.324913     -898.378365  0.443688 -6.184143  0.377142
   scf:    5     -898.343981     -898.334580     -898.388984  0.009350 -6.247353  0.366514
   scf:    6     -898.153053     -898.439207     -898.504317  0.474415 -6.234784  0.208793
   scf:    7     -898.501371     -898.491026     -898.560319  0.154393 -6.226699  0.022630
   scf:    8     -898.490782     -898.490907     -898.560193  0.001792 -6.229857  0.024718
   scf:    9     -898.491097     -898.491648     -898.560937  0.026987 -6.234353  0.008029
   scf:   10     -898.491716     -898.491686     -898.560983  0.002188 -6.234387  0.005385
   scf:   11     -898.491714     -898.491702     -898.561003  0.001327 -6.236020  0.003773
   scf:   12     -898.491703     -898.491712     -898.561021  0.003282 -6.236194  0.001917
   scf:   13     -898.491713     -898.491712     -898.561021  0.000289 -6.236365  0.001873
   scf:   14     -898.491712     -898.491712     -898.561021  0.000188 -6.236462  0.001545
   scf:   15     -898.491712     -898.491713     -898.561021  0.000466 -6.237003  0.000642
   scf:   16     -898.491713     -898.491713     -898.561021  0.000008 -6.237001  0.000618

SCF Convergence by DM+H criterion
max |DM_out - DM_in|         :     0.0000084690
max |H_out - H_in|      (eV) :     0.0006182871
SCF cycle converged after 16 iterations

Using DM_out to compute the final energy and forces
No. of atoms with KB's overlaping orbs in proc 0. Max # of overlaps:       4      26

siesta: E_KS(eV) =             -898.4917

siesta: Atomic forces (eV/Ang):
----------------------------------------
   Tot   -0.000602   -0.000771   -0.000715
----------------------------------------
   Max    0.321359
   Res    0.139084    sqrt( Sum f_i^2 / 3N )
----------------------------------------
   Max    0.321359    constrained

Stress tensor Voigt[x,y,z,yz,xz,xy] (kbar):      -13.04       -0.53       -0.35       -0.16        0.04       -0.11
(Free)E + p*V (eV/cell)     -895.6636
Target enthalpy (eV/cell)     -898.5610

siesta: Stress tensor (static) (eV/Ang**3):
        -0.000315    0.000081    0.000099
         0.000081    0.000023    0.000045
         0.000099    0.000045    0.000080

siesta: Pressure (static):          0.11330300  kBar

siesta: Stress tensor (total) (eV/Ang**3):
        -0.008142   -0.000070    0.000022
        -0.000070   -0.000332   -0.000101
         0.000022   -0.000101   -0.000219

siesta: Pressure (total):          4.64221599  kBar

siesta: Temp_ion =   11201.181 K

                     ====================================
                        Begin MD step =     13
                     ====================================

outcell: Unit cell vectors (Ang):
       10.000004    0.000000    0.000000
        0.000000   10.000004    0.000000
        0.000000    0.000000   10.000004

outcell: Cell vector modules (Ang)   :   10.000004   10.000004   10.000004
outcell: Cell angles (23,13,12) (deg):     90.0000     90.0000     90.0000
outcell: Cell volume (Ang**3)        :   1000.0012
<dSpData1D:S at geom step 13
  <sparsity:sparsity for geom step 13
    nrows_g=26 nrows=26 sparsity=1.0000 nnzs=676, refcount: 7>
  <dData1D:(new from dSpData1D) n=676, refcount: 1>
refcount: 1>
new_DM -- step:    13
Re-using DM from previous geometries...
Number of DMs in history: 1
 DM extrapolation coefficients: 
1   1.00000
New DM after history re-use:
<dSpData2D:SpM extrapolated using coords
  <sparsity:sparsity for geom step 13
    nrows_g=26 nrows=26 sparsity=1.0000 nnzs=676, refcount: 9>
  <dData2D:(temp array for extrapolation) n=676 m=1, refcount: 1>
refcount: 1>
Note: For starting DM, Qtot, Tr[D*S] =         14.00000000         13.95605272
No. of atoms with KB's overlaping orbs in proc 0. Max # of overlaps:       4      26

InitMesh: MESH = 90 x 90 x 90 = 729000
InitMesh: Mesh cutoff (required, used) =   200.000   223.865 Ry
New grid distribution [1]: sub = 2

        iscf     Eharris(eV)        E_KS(eV)     FreeEng(eV)     dDmax    Ef(eV) dHmax(eV)
   scf:    1     -897.867871     -898.264381     -898.332091  0.098096 -5.869300  0.858712
   scf:    2     -896.397817     -897.709605     -897.722308  0.681641 -6.582275  1.081060
   scf:    3     -898.381844     -898.099451     -898.153199  0.251773 -6.195174  0.475860
   scf:    4     -897.745024     -897.934726     -897.972236  0.126919 -6.238266  0.567984
   scf:    5     -896.812507     -898.003160     -898.042752  0.884327 -6.419509  0.514749
   scf:    6     -898.103713     -898.054703     -898.100046  0.039924 -6.381163  0.463820
   scf:    7     -896.775331     -897.965142     -898.005003  0.823016 -6.395367  0.541686
   scf:    8     -898.039879     -898.003085     -898.046929  0.026931 -6.395272  0.507302
   scf:    9     -898.182744     -898.097531     -898.150648  0.075972 -6.398266  0.412669
   scf:   10     -898.345936     -898.280965     -898.349786  0.268759 -6.394526  0.086979
   scf:   11     -898.283470     -898.282242     -898.351151  0.005539 -6.395028  0.080350
   scf:   12     -898.290889     -898.287226     -898.356450  0.028500 -6.399525  0.046267
   scf:   13     -898.290211     -898.289743     -898.359039  0.035437 -6.406876  0.005110
   scf:   14     -898.289685     -898.289720     -898.359024  0.002265 -6.408004  0.006787
   scf:   15     -898.289806     -898.289779     -898.359070  0.004374 -6.409309  0.004298
   scf:   16     -898.289789     -898.289785     -898.359072  0.001160 -6.409651  0.002628
   scf:   17     -898.289788     -898.289787     -898.359073  0.000558 -6.409096  0.001882
   scf:   18     -898.289788     -898.289787     -898.359075  0.000418 -6.408086  0.001450
   scf:   19     -898.289787     -898.289787     -898.359075  0.000020 -6.408163  0.001343
   scf:   20     -898.289786     -898.289787     -898.359075  0.000428 -6.408823  0.000547
   scf:   21     -898.289787     -898.289787     -898.359075  0.000100 -6.408786  0.000412

SCF Convergence by DM+H criterion
max |DM_out - DM_in|         :     0.0001000557
max |H_out - H_in|      (eV) :     0.0004122240
SCF cycle converged after 21 iterations

Using DM_out to compute the final energy and forces
No. of atoms with KB's overlaping orbs in proc 0. Max # of overlaps:       4      26

siesta: E_KS(eV) =             -898.2898

siesta: Atomic forces (eV/Ang):
----------------------------------------
   Tot   -0.000169   -0.000170   -0.000539
----------------------------------------
   Max    1.930107
   Res    0.949743    sqrt( Sum f_i^2 / 3N )
----------------------------------------
   Max    1.930107    constrained

Stress tensor Voigt[x,y,z,yz,xz,xy] (kbar):      -11.80       -0.21        0.42        0.33        1.09        0.76
(Free)E + p*V (eV/cell)     -895.9477
Target enthalpy (eV/cell)     -898.3591

siesta: Stress tensor (static) (eV/Ang**3):
         0.000514    0.000711    0.000880
         0.000711    0.000272    0.000424
         0.000880    0.000424    0.000667

siesta: Pressure (static):         -0.77595430  kBar

siesta: Stress tensor (total) (eV/Ang**3):
        -0.007363    0.000474    0.000683
         0.000474   -0.000133    0.000207
         0.000683    0.000207    0.000262

siesta: Pressure (total):          3.86351004  kBar

siesta: Temp_ion =   10724.037 K

                     ====================================
                        Begin MD step =     14
                     ====================================

outcell: Unit cell vectors (Ang):
       10.000004    0.000000    0.000000
        0.000000   10.000004    0.000000
        0.000000    0.000000   10.000004

outcell: Cell vector modules (Ang)   :   10.000004   10.000004   10.000004
outcell: Cell angles (23,13,12) (deg):     90.0000     90.0000     90.0000
outcell: Cell volume (Ang**3)        :   1000.0012
<dSpData1D:S at geom step 14
  <sparsity:sparsity for geom step 14
    nrows_g=26 nrows=26 sparsity=1.0000 nnzs=676, refcount: 7>
  <dData1D:(new from dSpData1D) n=676, refcount: 1>
refcount: 1>
new_DM -- step:    14
Re-using DM from previous geometries...
Number of DMs in history: 1
 DM extrapolation coefficients: 
1   1.00000
New DM after history re-use:
<dSpData2D:SpM extrapolated using coords
  <sparsity:sparsity for geom step 14
    nrows_g=26 nrows=26 sparsity=1.0000 nnzs=676, refcount: 9>
  <dData2D:(temp array for extrapolation) n=676 m=1, refcount: 1>
refcount: 1>
Note: For starting DM, Qtot, Tr[D*S] =         14.00000000         13.97155066
No. of atoms with KB's overlaping orbs in proc 0. Max # of overlaps:       4      26

InitMesh: MESH = 90 x 90 x 90 = 729000
InitMesh: Mesh cutoff (required, used) =   200.000   223.865 Ry
New grid distribution [1]: sub = 2

        iscf     Eharris(eV)        E_KS(eV)     FreeEng(eV)     dDmax    Ef(eV) dHmax(eV)
   scf:    1     -897.415039     -897.939912     -898.005041  0.154049 -6.207230  0.755144
   scf:    2     -895.686381     -897.307869     -897.310527  0.776476 -6.800862  1.351676
   scf:    3     -898.039616     -897.728201     -897.776697  0.235048 -6.423733  0.484186
   scf:    4     -897.428978     -897.586255     -897.620334  0.099456 -6.465381  0.610006
   scf:    5     -896.554384     -897.720858     -897.760303  0.906121 -6.600601  0.502214
   scf:    6     -897.722262     -897.721699     -897.761246  0.004400 -6.556187  0.500318
   scf:    7     -897.926838     -897.984338     -898.053620  0.445251 -6.568094  0.045407
   scf:    8     -897.840197     -897.929902     -897.995523  0.147549 -6.567613  0.223785
   scf:    9     -897.796730     -897.952852     -898.017864  0.332587 -6.560708  0.178189
   scf:   10     -897.955222     -897.983613     -898.052881  0.190180 -6.572486  0.052112
   scf:   11     -897.974751     -897.984776     -898.053492  0.082968 -6.572927  0.048034
   scf:   12     -897.984713     -897.986816     -898.056096  0.050669 -6.573933  0.013267
   scf:   13     -897.987071     -897.986956     -898.056217  0.003902 -6.573981  0.010751
   scf:   14     -897.987127     -897.987061     -898.056293  0.004835 -6.576739  0.006698
   scf:   15     -897.987099     -897.987086     -898.056298  0.002735 -6.576742  0.007185
   scf:   16     -897.987081     -897.987083     -898.056299  0.000419 -6.577145  0.006750
   scf:   17     -897.987077     -897.987081     -898.056301  0.000863 -6.581146  0.002727
   scf:   18     -897.987082     -897.987082     -898.056301  0.000082 -6.581349  0.002567
   scf:   19     -897.987082     -897.987082     -898.056302  0.000220 -6.581351  0.000544

SCF Convergence by DM+H criterion
max |DM_out - DM_in|         :     0.0002202369
max |H_out - H_in|      (eV) :     0.0005438419
SCF cycle converged after 19 iterations

Using DM_out to compute the final energy and forces
No. of atoms with KB's overlaping orbs in proc 0. Max # of overlaps:       4      26

siesta: E_KS(eV) =             -897.9871

siesta: Atomic forces (eV/Ang):
----------------------------------------
   Tot   -0.001735    0.000384    0.000291
----------------------------------------
   Max    2.643292
   Res    1.290908    sqrt( Sum f_i^2 / 3N )
----------------------------------------
   Max    2.643292    constrained

Stress tensor Voigt[x,y,z,yz,xz,xy] (kbar):      -12.00        0.04        1.12        0.77        1.82        1.43
(Free)E + p*V (eV/cell)     -895.8019
Target enthalpy (eV/cell)     -898.0563

siesta: Stress tensor (static) (eV/Ang**3):
         0.000174    0.001064    0.001235
         0.001064    0.000384    0.000628
         0.001235    0.000628    0.000996

siesta: Pressure (static):         -0.82986697  kBar

siesta: Stress tensor (total) (eV/Ang**3):
        -0.007488    0.000890    0.001137
         0.000890    0.000024    0.000482
         0.001137    0.000482    0.000701

siesta: Pressure (total):          3.61196712  kBar

siesta: Temp_ion =    9963.367 K

                     ====================================
                        Begin MD step =     15
                     ====================================

outcell: Unit cell vectors (Ang):
       10.000004    0.000000    0.000000
        0.000000   10.000004    0.000000
        0.000000    0.000000   10.000004

outcell: Cell vector modules (Ang)   :   10.000004   10.000004   10.000004
outcell: Cell angles (23,13,12) (deg):     90.0000     90.0000     90.0000
outcell: Cell volume (Ang**3)        :   1000.0012
<dSpData1D:S at geom step 15
  <sparsity:sparsity for geom step 15
    nrows_g=26 nrows=26 sparsity=1.0000 nnzs=676, refcount: 7>
  <dData1D:(new from dSpData1D) n=676, refcount: 1>
refcount: 1>
new_DM -- step:    15
Re-using DM from previous geometries...
Number of DMs in history: 1
 DM extrapolation coefficients: 
1   1.00000
New DM after history re-use:
<dSpData2D:SpM extrapolated using coords
  <sparsity:sparsity for geom step 15
    nrows_g=26 nrows=26 sparsity=1.0000 nnzs=676, refcount: 9>
  <dData2D:(temp array for extrapolation) n=676 m=1, refcount: 1>
refcount: 1>
No. of atoms with KB's overlaping orbs in proc 0. Max # of overlaps:       4      26

InitMesh: MESH = 90 x 90 x 90 = 729000
InitMesh: Mesh cutoff (required, used) =   200.000   223.865 Ry
New grid distribution [1]: sub = 2

        iscf     Eharris(eV)        E_KS(eV)     FreeEng(eV)     dDmax    Ef(eV) dHmax(eV)
   scf:    1     -897.048375     -897.641349     -897.701068  0.192190 -6.612969  0.484158
   scf:    2     -894.846209     -896.889506     -896.889951  0.762032 -6.786486  1.871364
   scf:    3     -897.972165     -897.601599     -897.664700  0.360686 -6.649804  0.369267
   scf:    4     -897.650969     -897.627130     -897.692049  0.028335 -6.647836  0.335382
   scf:    5     -897.738460     -897.709437     -897.778742  0.160205 -6.688188  0.136075
   scf:    6     -897.502654     -897.653010     -897.713087  0.211158 -6.704135  0.211427
   scf:    7     -897.598711     -897.627006     -897.683907  0.033298 -6.704933  0.252329
   scf:    8     -897.023844     -897.560177     -897.619866  0.473515 -6.703087  0.322487
   scf:    9     -897.699297     -897.713397     -897.782036  0.282103 -6.704833  0.019220
   scf:   10     -897.508612     -897.642122     -897.700869  0.172806 -6.704791  0.229530
   scf:   11     -897.711882     -897.713706     -897.782630  0.187064 -6.703568  0.006025
   scf:   12     -897.713721     -897.713718     -897.782607  0.001952 -6.703600  0.007693
   scf:   13     -897.713477     -897.713635     -897.782623  0.006295 -6.704668  0.003511
   scf:   14     -897.713743     -897.713701     -897.782634  0.003362 -6.704962  0.002791
   scf:   15     -897.713601     -897.713658     -897.782632  0.002421 -6.705886  0.002134
   scf:   16     -897.713731     -897.713701     -897.782636  0.002710 -6.706018  0.001152
   scf:   17     -897.713675     -897.713688     -897.782637  0.000862 -6.706120  0.000781
   scf:   18     -897.713687     -897.713688     -897.782638  0.000152 -6.706173  0.000575

SCF Convergence by DM+H criterion
max |DM_out - DM_in|         :     0.0001518705
max |H_out - H_in|      (eV) :     0.0005748489
SCF cycle converged after 18 iterations

Using DM_out to compute the final energy and forces
No. of atoms with KB's overlaping orbs in proc 0. Max # of overlaps:       4      26

siesta: E_KS(eV) =             -897.7137

siesta: Atomic forces (eV/Ang):
----------------------------------------
   Tot    0.001624    0.001213    0.001036
----------------------------------------
   Max    2.922510
   Res    1.388456    sqrt( Sum f_i^2 / 3N )
----------------------------------------
   Max    2.922510    constrained

Stress tensor Voigt[x,y,z,yz,xz,xy] (kbar):      -13.55        0.06        1.46        0.97        1.99        1.71
(Free)E + p*V (eV/cell)     -895.2798
Target enthalpy (eV/cell)     -897.7826

siesta: Stress tensor (static) (eV/Ang**3):
        -0.001144    0.001165    0.001220
         0.001165    0.000331    0.000639
         0.001220    0.000639    0.001032

siesta: Pressure (static):         -0.11675551  kBar

siesta: Stress tensor (total) (eV/Ang**3):
        -0.008458    0.001068    0.001241
         0.001068    0.000040    0.000604
         0.001241    0.000604    0.000910

siesta: Pressure (total):          4.01001318  kBar

siesta: Temp_ion =    9249.863 K

                     ====================================
                        Begin MD step =     16
                     ====================================

outcell: Unit cell vectors (Ang):
       10.000004    0.000000    0.000000
        0.000000   10.000004    0.000000
        0.000000    0.000000   10.000004

outcell: Cell vector modules (Ang)   :   10.000004   10.000004   10.000004
outcell: Cell angles (23,13,12) (deg):     90.0000     90.0000     90.0000
outcell: Cell volume (Ang**3)        :   1000.0012
<dSpData1D:S at geom step 16
  <sparsity:sparsity for geom step 16
    nrows_g=26 nrows=26 sparsity=1.0000 nnzs=676, refcount: 7>
  <dData1D:(new from dSpData1D) n=676, refcount: 1>
refcount: 1>
new_DM -- step:    16
Re-using DM from previous geometries...
Number of DMs in history: 1
 DM extrapolation coefficients: 
1   1.00000
New DM after history re-use:
<dSpData2D:SpM extrapolated using coords
  <sparsity:sparsity for geom step 16
    nrows_g=26 nrows=26 sparsity=1.0000 nnzs=676, refcount: 9>
  <dData2D:(temp array for extrapolation) n=676 m=1, refcount: 1>
refcount: 1>
Note: For starting DM, Qtot, Tr[D*S] =         14.00000000         14.01411942
No. of atoms with KB's overlaping orbs in proc 0. Max # of overlaps:       4      26

InitMesh: MESH = 90 x 90 x 90 = 729000
InitMesh: Mesh cutoff (required, used) =   200.000   223.865 Ry
New grid distribution [1]: sub = 2

        iscf     Eharris(eV)        E_KS(eV)     FreeEng(eV)     dDmax    Ef(eV) dHmax(eV)
   scf:    1     -896.304316     -897.231218     -897.274011  0.306902 -6.919801  1.415856
   scf:    2     -892.058084     -895.888610     -895.888619  1.027221 -6.162766  4.926180
   scf:    3     -897.720584     -897.037949     -897.083708  0.269050 -6.752935  1.382795
   scf:    4     -897.372536     -897.428248     -897.494718  0.483128 -6.846092  0.252584
[...]
(Free)E + p*V (eV/cell)     -895.0188
Target enthalpy (eV/cell)     -896.9350

siesta: Stress tensor (static) (eV/Ang**3):
         0.000291    0.000161    0.001620
         0.000162   -0.008400    0.006167
         0.001621    0.006167    0.007072

siesta: Pressure (static):          0.55401591  kBar

siesta: Stress tensor (total) (eV/Ang**3):
        -0.001853   -0.000756    0.000948
        -0.000755   -0.010016    0.005326
         0.000949    0.005326    0.006121

siesta: Pressure (total):          3.07021755  kBar

siesta: Temp_ion =    7501.177 K

                     ====================================
                        Begin MD step =    198
                     ====================================

outcell: Unit cell vectors (Ang):
       10.000004    0.000000    0.000000
        0.000000   10.000004    0.000000
        0.000000    0.000000   10.000004

outcell: Cell vector modules (Ang)   :   10.000004   10.000004   10.000004
outcell: Cell angles (23,13,12) (deg):     90.0000     90.0000     90.0000
outcell: Cell volume (Ang**3)        :   1000.0012
<dSpData1D:S at geom step 198
  <sparsity:sparsity for geom step 198
    nrows_g=26 nrows=26 sparsity=1.0000 nnzs=676, refcount: 7>
  <dData1D:(new from dSpData1D) n=676, refcount: 1>
refcount: 1>
new_DM -- step:   198
Re-using DM from previous geometries...
Number of DMs in history: 1
 DM extrapolation coefficients: 
1   1.00000
New DM after history re-use:
<dSpData2D:SpM extrapolated using coords
  <sparsity:sparsity for geom step 198
    nrows_g=26 nrows=26 sparsity=1.0000 nnzs=676, refcount: 9>
  <dData2D:(temp array for extrapolation) n=676 m=1, refcount: 1>
refcount: 1>
Note: For starting DM, Qtot, Tr[D*S] =         14.00000000         14.09370256
No. of atoms with KB's overlaping orbs in proc 0. Max # of overlaps:       4      26

InitMesh: MESH = 90 x 90 x 90 = 729000
InitMesh: Mesh cutoff (required, used) =   200.000   223.865 Ry
New grid distribution [1]: sub = 2

        iscf     Eharris(eV)        E_KS(eV)     FreeEng(eV)     dDmax    Ef(eV) dHmax(eV)
   scf:    1     -894.313627     -896.787116     -896.787116  0.331271 -4.629652  3.845689
   scf:    2     -845.830202     -881.983653     -881.983653  1.590713 -2.302492 17.776514
   scf:    3     -898.162295     -897.545444     -897.545757  1.301042 -4.268087  0.774157
   scf:    4     -897.541819     -897.544505     -897.544945  0.014619 -4.254266  0.586306
   scf:    5     -897.165376     -897.455215     -897.455283  0.162618 -4.333395  1.449507
   scf:    6     -897.280812     -897.530106     -897.534032  0.208934 -4.173607  0.884144
   scf:    7     -897.433766     -897.484890     -897.489608  0.028608 -4.166537  1.192178
   scf:    8     -897.614254     -897.585671     -897.588357  0.105823 -4.175641  0.326415
   scf:    9     -897.542992     -897.577887     -897.579391  0.063612 -4.197924  0.462012
   scf:   10     -897.544011     -897.562252     -897.563273  0.029264 -4.195625  0.664541
   scf:   11     -897.593484     -897.590214     -897.594284  0.075174 -4.200636  0.042641
   scf:   12     -897.588360     -897.589551     -897.594166  0.008899 -4.199280  0.051864
   scf:   13     -897.589000     -897.589962     -897.593805  0.014036 -4.202621  0.093086
   scf:   14     -897.589398     -897.589726     -897.594211  0.003658 -4.203941  0.052353
   scf:   15     -897.588725     -897.589338     -897.594419  0.005651 -4.204117  0.007749
   scf:   16     -897.587688     -897.588591     -897.594208  0.004667 -4.203964  0.058278
   scf:   17     -897.589975     -897.589359     -897.594419  0.004614 -4.204349  0.008318
   scf:   18     -897.589439     -897.589400     -897.594421  0.000361 -4.204428  0.003865
   scf:   19     -897.589421     -897.589410     -897.594421  0.000048 -4.204444  0.003702
   scf:   20     -897.588878     -897.589157     -897.594389  0.001864 -4.204212  0.024136
   scf:   21     -897.589763     -897.589478     -897.594421  0.002254 -4.205127  0.002472
   scf:   22     -897.589437     -897.589457     -897.594421  0.000169 -4.205146  0.001309
   scf:   23     -897.589365     -897.589411     -897.594421  0.000137 -4.205923  0.000837

SCF Convergence by DM+H criterion
max |DM_out - DM_in|         :     0.0001370725
max |H_out - H_in|      (eV) :     0.0008369102
SCF cycle converged after 23 iterations

Using DM_out to compute the final energy and forces
No. of atoms with KB's overlaping orbs in proc 0. Max # of overlaps:       4      26

siesta: E_KS(eV) =             -897.5894

siesta: Atomic forces (eV/Ang):
----------------------------------------
   Tot   -0.019011   -0.009693    0.015906
----------------------------------------
   Max   10.262543
   Res    4.165589    sqrt( Sum f_i^2 / 3N )
----------------------------------------
   Max   10.262543    constrained

Stress tensor Voigt[x,y,z,yz,xz,xy] (kbar):       -3.15      -21.40        5.85        6.66        0.55       -1.46
(Free)E + p*V (eV/cell)     -893.7048
Target enthalpy (eV/cell)     -897.5944

siesta: Stress tensor (static) (eV/Ang**3):
         0.000297    0.000076    0.001534
         0.000076   -0.011781    0.005630
         0.001535    0.005631    0.005632

siesta: Pressure (static):          3.12491244  kBar

siesta: Stress tensor (total) (eV/Ang**3):
        -0.001967   -0.000909    0.000343
        -0.000909   -0.013356    0.004154
         0.000343    0.004154    0.003654

siesta: Pressure (total):          6.23185659  kBar

siesta: Temp_ion =    9123.390 K

                     ====================================
                        Begin MD step =    199
                     ====================================

outcell: Unit cell vectors (Ang):
       10.000004    0.000000    0.000000
        0.000000   10.000004    0.000000
        0.000000    0.000000   10.000004

outcell: Cell vector modules (Ang)   :   10.000004   10.000004   10.000004
outcell: Cell angles (23,13,12) (deg):     90.0000     90.0000     90.0000
outcell: Cell volume (Ang**3)        :   1000.0012
<dSpData1D:S at geom step 199
  <sparsity:sparsity for geom step 199
    nrows_g=26 nrows=26 sparsity=1.0000 nnzs=676, refcount: 7>
  <dData1D:(new from dSpData1D) n=676, refcount: 1>
refcount: 1>
new_DM -- step:   199
Re-using DM from previous geometries...
Number of DMs in history: 1
 DM extrapolation coefficients: 
1   1.00000
New DM after history re-use:
<dSpData2D:SpM extrapolated using coords
  <sparsity:sparsity for geom step 199
    nrows_g=26 nrows=26 sparsity=1.0000 nnzs=676, refcount: 9>
  <dData2D:(temp array for extrapolation) n=676 m=1, refcount: 1>
refcount: 1>
Note: For starting DM, Qtot, Tr[D*S] =         14.00000000         14.10688463
No. of atoms with KB's overlaping orbs in proc 0. Max # of overlaps:       4      26

InitMesh: MESH = 90 x 90 x 90 = 729000
InitMesh: Mesh cutoff (required, used) =   200.000   223.865 Ry
New grid distribution [1]: sub = 2

        iscf     Eharris(eV)        E_KS(eV)     FreeEng(eV)     dDmax    Ef(eV) dHmax(eV)
   scf:    1     -895.262567     -897.311041     -897.311041  0.295560 -4.279125  3.825681
   scf:    2     -850.388797     -883.083956     -883.083956  1.581739 -2.482521 16.361157
   scf:    3     -898.054124     -897.882224     -897.882224  1.419544 -4.111908  1.648949
   scf:    4     -897.954289     -897.930375     -897.930375  0.053898 -4.015425  0.957990
   scf:    5     -897.841499     -897.904868     -897.904868  0.065471 -4.106717  1.218090
   scf:    6     -897.978119     -897.966188     -897.966188  0.067282 -3.980713  0.161641
   scf:    7     -897.965828     -897.966011     -897.966011  0.000531 -3.980143  0.175459
   scf:    8     -897.967232     -897.967564     -897.967564  0.012161 -3.987403  0.093824
   scf:    9     -897.967937     -897.967769     -897.967769  0.002097 -3.988772  0.055278
   scf:   10     -897.967846     -897.967927     -897.967927  0.005574 -3.988156  0.020582
   scf:   11     -897.967944     -897.967936     -897.967936  0.000335 -3.988366  0.015201
   scf:   12     -897.967955     -897.967949     -897.967949  0.000989 -3.989477  0.001423
   scf:   13     -897.967949     -897.967949     -897.967949  0.000090 -3.989496  0.000374

SCF Convergence by DM+H criterion
max |DM_out - DM_in|         :     0.0000903410
max |H_out - H_in|      (eV) :     0.0003743207
SCF cycle converged after 13 iterations

Using DM_out to compute the final energy and forces
No. of atoms with KB's overlaping orbs in proc 0. Max # of overlaps:       4      26

siesta: E_KS(eV) =             -897.9679

siesta: Atomic forces (eV/Ang):
----------------------------------------
   Tot   -0.002636   -0.009538    0.020947
----------------------------------------
   Max   11.284927
   Res    4.662692    sqrt( Sum f_i^2 / 3N )
----------------------------------------
   Max   11.284927    constrained

Stress tensor Voigt[x,y,z,yz,xz,xy] (kbar):       -3.24      -26.06       -2.91        2.07        1.03       -0.61
(Free)E + p*V (eV/cell)     -891.2651
Target enthalpy (eV/cell)     -897.9679

siesta: Stress tensor (static) (eV/Ang**3):
         0.000317    0.000560    0.002269
         0.000560   -0.014762    0.003379
         0.002269    0.003379    0.001412

siesta: Pressure (static):          6.96022687  kBar

siesta: Stress tensor (total) (eV/Ang**3):
        -0.002024   -0.000383    0.000642
        -0.000383   -0.016266    0.001295
         0.000643    0.001295   -0.001818

siesta: Pressure (total):         10.73908216  kBar

siesta: Temp_ion =   10047.822 K

                     ====================================
                        Begin MD step =    200
                     ====================================

outcell: Unit cell vectors (Ang):
       10.000004    0.000000    0.000000
        0.000000   10.000004    0.000000
        0.000000    0.000000   10.000004

outcell: Cell vector modules (Ang)   :   10.000004   10.000004   10.000004
outcell: Cell angles (23,13,12) (deg):     90.0000     90.0000     90.0000
outcell: Cell volume (Ang**3)        :   1000.0012
<dSpData1D:S at geom step 200
  <sparsity:sparsity for geom step 200
    nrows_g=26 nrows=26 sparsity=1.0000 nnzs=676, refcount: 7>
  <dData1D:(new from dSpData1D) n=676, refcount: 1>
refcount: 1>
new_DM -- step:   200
Re-using DM from previous geometries...
Number of DMs in history: 1
 DM extrapolation coefficients: 
1   1.00000
New DM after history re-use:
<dSpData2D:SpM extrapolated using coords
  <sparsity:sparsity for geom step 200
    nrows_g=26 nrows=26 sparsity=1.0000 nnzs=676, refcount: 9>
  <dData2D:(temp array for extrapolation) n=676 m=1, refcount: 1>
refcount: 1>
Note: For starting DM, Qtot, Tr[D*S] =         14.00000000         14.09581815
No. of atoms with KB's overlaping orbs in proc 0. Max # of overlaps:       4      26

InitMesh: MESH = 90 x 90 x 90 = 729000
InitMesh: Mesh cutoff (required, used) =   200.000   223.865 Ry
New grid distribution [1]: sub = 2

        iscf     Eharris(eV)        E_KS(eV)     FreeEng(eV)     dDmax    Ef(eV) dHmax(eV)
   scf:    1     -896.807850     -897.872053     -897.872053  0.240994 -4.811365  3.298750
   scf:    2     -891.301184     -896.092098     -896.092098  0.584768 -2.715436  6.302105
   scf:    3     -898.713628     -898.246490     -898.246490  0.461122 -3.954449  0.677676
   scf:    4     -898.245010     -898.245756     -898.245756  0.000997 -3.960641  0.697611
   scf:    5     -898.258386     -898.258084     -898.258084  0.022883 -3.854563  0.284061
   scf:    6     -898.248403     -898.253582     -898.253582  0.007383 -3.873575  0.445531
   scf:    7     -898.263991     -898.262100     -898.262100  0.023807 -3.815396  0.018047
   scf:    8     -898.262107     -898.262111     -898.262111  0.000731 -3.813539  0.007265
   scf:    9     -898.262144     -898.262130     -898.262130  0.000650 -3.813363  0.002957
   scf:   10     -898.262131     -898.262130     -898.262130  0.000064 -3.813055  0.002287
   scf:   11     -898.262132     -898.262131     -898.262131  0.000148 -3.812424  0.000543

SCF Convergence by DM+H criterion
max |DM_out - DM_in|         :     0.0001478045
max |H_out - H_in|      (eV) :     0.0005426716
SCF cycle converged after 11 iterations

Using DM_out to compute the final energy and forces
No. of atoms with KB's overlaping orbs in proc 0. Max # of overlaps:       4      26

siesta: E_KS(eV) =             -898.2621

siesta: Atomic forces (eV/Ang):
----------------------------------------
   Tot    0.017996   -0.008460    0.018004
----------------------------------------
   Max   11.021931
   Res    5.992811    sqrt( Sum f_i^2 / 3N )
----------------------------------------
   Max   11.021931    constrained

Stress tensor Voigt[x,y,z,yz,xz,xy] (kbar):       -4.67      -27.82       -9.97       -1.49        4.16        1.90
(Free)E + p*V (eV/cell)     -889.4267
Target enthalpy (eV/cell)     -898.2621

siesta: Stress tensor (static) (eV/Ang**3):
        -0.000424    0.001836    0.004310
         0.001836   -0.016040    0.001303
         0.004310    0.001303   -0.002250

siesta: Pressure (static):          9.99421828  kBar

siesta: Stress tensor (total) (eV/Ang**3):
        -0.002915    0.001187    0.002596
         0.001187   -0.017366   -0.000927
         0.002596   -0.000927   -0.006225

siesta: Pressure (total):         14.15596782  kBar

siesta: Temp_ion =   11202.365 K

coxmol: Writing XMOL coordinates into file xoc.xyz                                                                                                                                                                                                                             

siesta: Program's energy decomposition (eV):
siesta: Ebs     =      -196.441961
siesta: Eions   =      1581.702395
siesta: Ena     =       334.938106
siesta: Ekin    =       660.566721
siesta: Enl     =      -102.778571
siesta: Eso     =         0.000000
siesta: Edftu   =         0.000000
siesta: DEna    =         1.649384
siesta: DUscf   =         1.806401
siesta: DUext   =         0.000000
siesta: Ex      =      -198.157215
siesta: Ec      =       -14.584561
siesta: Exc     =      -212.741776
siesta: EbV     =         0.000000
siesta: eta*DQ  =         0.000000
siesta: Emadel  =         0.000000
siesta: Emeta   =         0.000000
siesta: Emolmec =         0.000000
siesta: Ekinion =         4.344053
siesta: Eharris =      -893.918079
siesta: Etot    =      -893.918078
siesta: FreeEng =      -893.918078

siesta: Final energy (eV):
siesta:  Band Struct. =    -196.441961
siesta:       Kinetic =     660.566721
siesta:       Hartree =    1032.080827
siesta:         Edftu =       0.000000
siesta:       Eso     =       0.000000
siesta:    Ext. field =       0.000000
siesta:         Exch. =    -198.157215
siesta:         Corr. =     -14.584561
siesta:     Bulk bias =       0.000000
siesta:   Exch.-corr. =    -212.741776
siesta:  Ion-electron =   -2649.487229
siesta:       Ion-ion =     271.319326
siesta:       Ekinion =       4.344053
siesta: D3 dispersion =       0.000000
siesta:         Total =    -893.918078
siesta:         Fermi =      -3.812424

siesta: Atomic forces (eV/Ang):
siesta:      1   -3.927622   -4.510204   10.680614
siesta:      2    1.419668   11.021931    2.191883
siesta:      3   -1.241974    0.246743   -4.352649
siesta:      4    3.767924   -6.766931   -8.501845
siesta: ----------------------------------------
siesta:    Tot    0.017996   -0.008460    0.018004

siesta: Stress tensor (static) (eV/Ang**3):
siesta:    -0.000424    0.001836    0.004310
siesta:     0.001836   -0.016040    0.001303
siesta:     0.004310    0.001303   -0.002250

siesta: Cell volume =       1000.001196 Ang**3

siesta: Pressure (static):
siesta:                Solid            Molecule  Units
siesta:           0.00006794         -0.00000008  Ry/Bohr**3
siesta:           0.00623790         -0.00000744  eV/Ang**3
siesta:           9.99421828         -0.01191575  kBar
(Free)E+ p_basis*V_orbitals  =        -897.503422
(Free)Eharris+ p_basis*V_orbitals  =        -897.503423

siesta: Electric dipole (a.u.)  =    0.287719   -0.063910    0.077588
siesta: Electric dipole (Debye) =    0.731309   -0.162443    0.197209

cite: Please see "xoc.bib" for an exhaustive BiBTeX file.
cite: Please clearly indicate Siesta version in published work: 5.2.1
cite: This calculation has made use of the following articles
cite: which are encouraged to be cited in a published work.
        Primary SIESTA paper
          DOI: www.doi.org/10.1088/0953-8984/14/11/302


timer: Elapsed wall time (sec) =     513.101
timer: CPU execution times (sec):

Routine            Calls   Time/call    Tot.time        %
siesta                 1    2236.767    2236.767   100.00
Setup                  1       1.085       1.085     0.05
bands                  1       0.000       0.000     0.00
KSV_init               1       0.000       0.000     0.00
IterGeom             200      11.178    2235.680    99.95
geom_init            200       0.199      39.727     1.78
state_init           200       0.001       0.147     0.01
hsparse              200       0.000       0.008     0.00
overlap              200       0.000       0.092     0.00
Setup_H0             200       0.091      18.185     0.81
naefs                400       0.000       0.007     0.00
dnaefs               400       0.000       0.005     0.00
MolMec               400       0.000       0.000     0.00
kinefsm              400       0.000       0.120     0.01
nlefsm               400       0.002       0.675     0.03
DHSCF_Init           200       0.088      17.557     0.78
DHSCF1               200       0.008       1.596     0.07
InitMesh             200       0.008       1.593     0.07
INITMESH             200       0.000       0.001     0.00
DHSCF2               200       0.080      15.960     0.71
REMESH               200       0.003       0.624     0.03
REORD              11484       0.002      21.598     0.97
PHION                200       0.038       7.671     0.34
COMM_BSC           17568       0.002      27.624     1.24
POISON              4442       0.147     653.608    29.22
fft                 8884       0.053     468.251    20.93
setup_H             4042       0.539    2176.897    97.32
DHSCF               4242       0.521    2209.026    98.76
DHSCF3              4242       0.518    2195.279    98.15
rhoofd              4242       0.035     147.776     6.61
XC                  4242       0.280    1188.252    53.12
GXC-CellXC          4242       0.268    1136.019    50.79
gridxc@cellXC       4242       0.268    1135.926    50.78
vmat                4242       0.004      18.182     0.81
IterSCF             3842       0.562    2160.538    96.59
compute_dm          3842       0.001       4.450     0.20
diagon              3842       0.001       4.397     0.20
r-eigvec            3842       0.001       3.863     0.17
r-buildHS           3842       0.000       0.009     0.00
rdiag               3842       0.001       3.837     0.17
rdiag1              3842       0.000       0.017     0.00
rdiag2              3842       0.000       0.053     0.00
rdiag3              3842       0.001       3.572     0.16
rdiag4              3842       0.000       0.139     0.01
r-buildD            3842       0.000       0.374     0.02
MIXER               3642       0.000       0.117     0.01
PostSCF              200       0.176      35.270     1.58
FINAL_HF             200       0.176      35.266     1.58
DHSCF4               200       0.069      13.732     0.61
dfscf                200       0.051      10.263     0.46
overfsm              200       0.000       0.033     0.00
writeHSX             200       0.000       0.021     0.00
state_analysis       200       0.000       0.031     0.00
siesta_move          200       0.000       0.057     0.00
Analysis               1       0.000       0.000     0.00
optical                1       0.000       0.000     0.00
  

>> End of run:  25-MAR-2025  17:33:35
Job completed
Job completed
