Executable      : siesta
Version         : 5.2.1
Architecture    : x86_64
Compiler version: GNU-13.3.0
Compiler flags  : -march=nocona -mtune=haswell -ftree-vectorize -fPIC -fstack-protector-strong -fno-plt -O2 -ffunction-sections -pipe -isystem <prefix>/include -I<prefix>/_build_env/include -fdebug-prefix-map=<prefix>/work=/usr/local/src/conda/siesta-5.2.1 -fdebug-prefix-map=<prefix>=/usr/local/src/conda-prefix -I<prefix>/lib -fallow-argument-mismatch -O3
Parallelisations: none
NetCDF support
NetCDF-4 support
Lua support
DFT-D3 support

Runtime information:
* Directory : /home/samba/homes/convidat/Simulacions/0.35
* Running in serial mode.
>> Start of run:  24-MAR-2025  17:33:17

                           *********************** 
                           *  WELCOME TO SIESTA  * 
                           *********************** 

 NOTE: Siesta V5 introduces some new defaults for basis-set generation
 NOTE: which might lead to slightly different numerical results.
 NOTE: Please see the manual for full details and compatibility measures.


reinit: Reading from file xoc.fdf

reinit: -----------------------------------------------------------------------
reinit: System Name: H2 + O2 -> H2O2 reaction
reinit: -----------------------------------------------------------------------
reinit: System Label: xoc
reinit: -----------------------------------------------------------------------

initatom: Reading input for the pseudopotentials and atomic orbitals ----------
Species number:   1 Atomic number:    8 Label: O
Species number:   2 Atomic number:    1 Label: H

Ground state valence configuration (from tables):   2s02  2p04  3d00  4f00
Ground state valence configuration (from tables):   1s01  2p00  3d00  4f00

---- Processing specs for species: O
Reading pseudopotential information in formatted form from:
  O.psf

---- Processing specs for species: H
Reading pseudopotential information in unformatted form from:
  H.vps

---- Pseudopotential check for O 

Pseudopotential generated from a fully relativistic atomic calculation
There are spin-orbit semi-local pseudopotentials available

Pseudized shells:
2s( 2.00) rc: 1.14
2p( 4.00) rc: 1.14
3d( 0.00) rc: 1.14
4f( 0.00) rc: 1.14
Valence configuration for ps generation: (assumed as above)

---- Pseudopotential check for H 

Pseudized shells:
1s( 1.00) rc: 1.25
2p( 0.00) rc: 1.25
3d( 0.00) rc: 1.25
4f( 0.00) rc: 1.25
Valence configuration for ps generation: (assumed as above)
For O, standard SIESTA heuristics set lmxkb to 3
 (one more than the basis l, including polarization orbitals).
Use PS.lmax or PS.KBprojectors blocks to override.
For H, standard SIESTA heuristics set lmxkb to 2
 (one more than the basis l, including polarization orbitals).
Use PS.lmax or PS.KBprojectors blocks to override.

<basis_specs>
===============================================================================
O                    Z=   8    Mass=  15.999        Charge= 0.17977+309
Lmxo=2 Lmxkb= 3    BasisType=split      Semic=F
L=0  Nsemic=0  Cnfigmx=2
          i=1  nzeta=1  polorb=0  (2s)
            splnorm:   0.15000    
               vcte:    40.000    
               rinn:  -0.90000    
               qcoe:    0.0000    
               qyuk:    0.0000    
               qwid:   0.10000E-01
                rcs:    0.0000    
            lambdas:    1.0000    
L=1  Nsemic=0  Cnfigmx=2
          i=1  nzeta=1  polorb=1  (2p)  (to be polarized perturbatively)
            splnorm:   0.15000    
               vcte:    40.000    
               rinn:  -0.90000    
               qcoe:    0.0000    
               qyuk:    0.0000    
               qwid:   0.10000E-01
                rcs:    0.0000    
            lambdas:    1.0000    
L=2  Nsemic=0  Cnfigmx=3
          i=1  nzeta=0  polorb=0  (3d)  (perturbative polarization orbital) (from 2p)
-------------------------------------------------------------------------------
L=0  Nkbl=1  erefs: 0.17977+309
L=1  Nkbl=1  erefs: 0.17977+309
L=2  Nkbl=1  erefs: 0.17977+309
L=3  Nkbl=1  erefs: 0.17977+309
===============================================================================
</basis_specs>

Using PAO.SplitTailNorm
atom: Called for O                     (Z =   8)
Maximum radius (at nrval) set to   50.00000 8518

read_vps: Pseudopotential generation method:
read_vps: ATM3      Troullier-Martins                       
Valence charge in pseudo generation:    6.00000

read_vps: Pseudopotential includes a core correction:
read_vps: Pseudo-core for xc-correction

xc_check: Exchange-correlation functional:
xc_check: GGA Perdew, Burke & Ernzerhof 1996
V l=0 = -2*Zval/r beyond r=  1.1355
V l=1 = -2*Zval/r beyond r=  1.1355
V l=2 = -2*Zval/r beyond r=  1.1309
V l=3 = -2*Zval/r beyond r=  1.1286
All V_l potentials equal beyond r=  1.1355
This should be close to max(r_c) in ps generation
All pots = -2*Zval/r beyond r=  1.1355
Using small-core scheme (local charge) for Vlocal

VLOCAL_FROM_CHLOCAL: 99.0% of the norm of Vloc inside     33.667 Ry
VLOCAL_FROM_CHLOCAL: 99.9% of the norm of Vloc inside     76.727 Ry
atom: Maximum radius for chlocal:    1.37241
atom: Maximum radius for r*vlocal+2*Zval:    1.25469

KBgen: Kleinman-Bylander projectors: 
GHOST: No ghost state for L =  0
   l= 0   rc=  1.357289   el= -1.759790   Ekb=  9.151830   kbcos=  0.327271
GHOST: No ghost state for L =  1
   l= 1   rc=  1.345038   el= -0.663797   Ekb= -7.991133   kbcos= -0.393963
GHOST: No ghost state for L =  2
   l= 2   rc=  1.779310   el=  0.012956   Ekb= -1.983219   kbcos= -0.003702
GHOST: No ghost state for L =  3
   l= 3   rc=  2.085579   el=  0.019231   Ekb= -0.873623   kbcos= -0.000360

KBgen: Total number of Kleinman-Bylander projectors:  16
atom: -------------------------------------------------------------------------

atom: SANKEY-TYPE ORBITALS:

SPLIT: Orbitals with angular momentum L= 0

SPLIT: Basis orbitals for state 2s

SPLIT: PAO cut-off radius determined from an
SPLIT: energy shift=  0.010000 Ry
Split based on tail norm

   izeta = 1
                 lambda =    1.000000
                     rc =    3.532490
                 energy =   -1.748682
                kinetic =    1.612754
    potential(screened) =   -3.361436
       potential(ionic) =  -11.306460

SPLIT: Orbitals with angular momentum L= 1

SPLIT: Basis orbitals for state 2p

SPLIT: PAO cut-off radius determined from an
SPLIT: energy shift=  0.010000 Ry
Split based on tail norm

   izeta = 1
                 lambda =    1.000000
                     rc =    4.299534
                 energy =   -0.652755
                kinetic =    4.913628
    potential(screened) =   -5.566382
       potential(ionic) =  -13.292903

POLgen: Perturbative polarization orbital with L=  2

POLgen: Polarization orbital for state 2p
Split based on tail norm

   izeta = 1
                     rc =    4.299534
                 energy =    2.258078
                kinetic =    4.298689
    potential(screened) =   -2.040611
       potential(ionic) =   -8.188336
atom: Total number of Sankey-type orbitals:  9

atm_pop: Valence configuration (for local Pseudopot. screening):
 2s( 2.00)                                                            
 2p( 4.00)                                                            
 3d( 0.00)                                                            
Vna: chval, zval:    6.00000   6.00000

Vna:  Cut-off radius for the neutral-atom potential:   4.299534
comcore: Pseudo-core radius Rcore=  1.364142

atom: _________________________________________________________________________

<basis_specs>
===============================================================================
H                    Z=   1    Mass=  1.0080        Charge= 0.17977+309
Lmxo=1 Lmxkb= 2    BasisType=split      Semic=F
L=0  Nsemic=0  Cnfigmx=1
          i=1  nzeta=1  polorb=1  (1s)  (to be polarized perturbatively)
            splnorm:   0.15000    
               vcte:    40.000    
               rinn:  -0.90000    
               qcoe:    0.0000    
               qyuk:    0.0000    
               qwid:   0.10000E-01
                rcs:    0.0000    
            lambdas:    1.0000    
L=1  Nsemic=0  Cnfigmx=2
          i=1  nzeta=0  polorb=0  (2p)  (perturbative polarization orbital) (from 1s)
-------------------------------------------------------------------------------
L=0  Nkbl=1  erefs: 0.17977+309
L=1  Nkbl=1  erefs: 0.17977+309
L=2  Nkbl=1  erefs: 0.17977+309
===============================================================================
</basis_specs>

Using PAO.SplitTailNorm
atom: Called for H                     (Z =   1)
Maximum radius (at nrval) set to   50.00000 8518

read_vps: Pseudopotential generation method:
read_vps: ATM3      Troullier-Martins                       
Valence charge in pseudo generation:    1.00000

xc_check: Exchange-correlation functional:
xc_check: GGA Perdew, Burke & Ernzerhof 1996
V l=0 = -2*Zval/r beyond r=  1.2384
V l=1 = -2*Zval/r beyond r=  1.2321
V l=2 = -2*Zval/r beyond r=  1.2235
All V_l potentials equal beyond r=  1.2371
This should be close to max(r_c) in ps generation
All pots = -2*Zval/r beyond r=  1.2384
Using small-core scheme (local charge) for Vlocal

VLOCAL_FROM_CHLOCAL: 99.0% of the norm of Vloc inside     28.363 Ry
VLOCAL_FROM_CHLOCAL: 99.9% of the norm of Vloc inside     64.639 Ry
atom: Maximum radius for chlocal:    1.44620
atom: Maximum radius for r*vlocal+2*Zval:    1.31026

KBgen: Kleinman-Bylander projectors: 
GHOST: No ghost state for L =  0
   l= 0   rc=  1.362769   el= -0.477200   Ekb= -2.026093   kbcos= -0.345051
GHOST: No ghost state for L =  1
   l= 1   rc=  1.431710   el=  0.007219   Ekb= -0.445752   kbcos= -0.023729
GHOST: No ghost state for L =  2
   l= 2   rc=  1.471166   el=  0.012944   Ekb= -0.141918   kbcos= -0.003041

KBgen: Total number of Kleinman-Bylander projectors:   9
atom: -------------------------------------------------------------------------

atom: SANKEY-TYPE ORBITALS:

SPLIT: Orbitals with angular momentum L= 0

SPLIT: Basis orbitals for state 1s

SPLIT: PAO cut-off radius determined from an
SPLIT: energy shift=  0.010000 Ry
Split based on tail norm

   izeta = 1
                 lambda =    1.000000
                     rc =    5.232664
                 energy =   -0.466073
                kinetic =    0.944036
    potential(screened) =   -1.410108
       potential(ionic) =   -1.935607

POLgen: Perturbative polarization orbital with L=  1

POLgen: Polarization orbital for state 1s
Split based on tail norm

   izeta = 1
                     rc =    5.232664
                 energy =    0.681103
                kinetic =    1.331928
    potential(screened) =   -0.650824
       potential(ionic) =   -1.138826
atom: Total number of Sankey-type orbitals:  4

atm_pop: Valence configuration (for local Pseudopot. screening):
 1s( 1.00)                                                            
 2p( 0.00)                                                            
Vna: chval, zval:    1.00000   1.00000

Vna:  Cut-off radius for the neutral-atom potential:   5.232664

atom: _________________________________________________________________________

prinput: Basis input 

PAO.BasisType split     

%block ChemicalSpeciesLabel
    1    8 O                       # Species index, atomic number, species label
    2    1 H                       # Species index, atomic number, species label
%endblock ChemicalSpeciesLabel

%block PAO.Basis                 # Define Basis set
# WARNING: This information might be incomplete!
O                     2                    # Species label, number of l-shells
 n=2   0   1                         # n, l, Nzeta 
   3.532   
   1.000   
 n=2   1   1 P   1                   # n, l, Nzeta, Polarization, NzetaPol
   4.300   
   1.000   
H                     1                    # Species label, number of l-shells
 n=1   0   1 P   1                   # n, l, Nzeta, Polarization, NzetaPol
   5.233   
   1.000   
%endblock PAO.Basis

prinput: ----------------------------------------------------------------------

Dumping basis to NetCDF file O.ion.nc
Dumping basis to NetCDF file H.ion.nc
coor:   Atomic-coordinates input format  =     Cartesian coordinates
coor:                                          (in Angstroms)

ioxv: Reading coordinates and velocities from file
! Info in XV file prevails over previous structure input
WARNING: xoc.VERLET_RESTART not found--reading only XV file and moving back 1 time step using Euler

siesta: Atomic coordinates (Bohr) and species
siesta:      2.54610  -0.03040  -0.00070  1        1
siesta:      4.99413  -0.00100  -0.00657  1        2
siesta:     12.89289   0.01600   0.01130  2        3
siesta:     14.26278   0.01600   0.01130  2        4

siesta: System type = chain     

initatomlists: Number of atoms, orbitals, and projectors:      4    26    50

coxmol: Writing XMOL coordinates into file xoc.xyz                                                                                                                                                                                                                             

siesta: ******************** Simulation parameters ****************************
siesta:
siesta: The following are some of the parameters of the simulation.
siesta: A complete list of the parameters used, including default values,
siesta: can be found in file out.fdf
siesta:
redata: Spin configuration                          = none
redata: Number of spin components                   = 1
redata: Time-Reversal Symmetry                      = T
redata: Spin spiral                                 = F
redata: Long output                                 =   F
redata: Number of Atomic Species                    =        2
redata: Charge density info will appear in .RHO file
redata: Write Mulliken charges (when)               = none
redata: Write Mulliken Pop.                         = NO
redata: Write Hirshfeld charges (when)              = none
redata: Write Voronoi charges (when)                = none
redata: Write spin charge (when)                    = none
redata: Matel table size (NRTAB)                    =     1024
redata: Mesh Cutoff                                 =   200.0000 Ry
redata: Net charge of the system                    =     0.0000 |e|
redata: Min. number of SCF Iter                     =        0
redata: Max. number of SCF Iter                     =      250
redata: SCF convergence failure will abort job
redata: SCF mix quantity                            = Hamiltonian
redata: Mix DM or H after convergence               =   F
redata: Recompute H after scf cycle                 =   F
redata: Mix DM in first SCF step                    =   T
redata: Write Pulay info on disk                    =   F
redata: New DM Occupancy tolerance                  = 0.000000000001
redata: No kicks to SCF
redata: DM Mixing Weight for Kicks                  =     0.5000
redata: Require Harris convergence for SCF          =   F
redata: Harris energy tolerance for SCF             =     0.000100 eV
redata: Require DM convergence for SCF              =   T
redata: DM tolerance for SCF                        =     0.000300
redata: Require EDM convergence for SCF             =   F
redata: EDM tolerance for SCF                       =     0.001000 eV
redata: Require H convergence for SCF               =   T
redata: Hamiltonian tolerance for SCF               =     0.001000 eV
redata: Require (free) Energy convergence for SCF   =   F
redata: (free) Energy tolerance for SCF             =     0.000100 eV
redata: Using DFT-D3 dispersion                     =   F
redata: Using Saved Data (generic)                  =   F
redata: Use continuation files for DM               =   T
redata: Neglect nonoverlap interactions             =   F
redata: Method of Calculation                       = Diagonalization
redata: Electronic Temperature                      =   290.1130 K
redata: Fix the spin of the system                  =   F
redata: Max. number of TDED Iter                    =        1
redata: Number of TDED substeps                     =        3
redata: Dynamics option                             = Verlet MD run
redata: Initial MD time step                        =        1
redata:   Final MD time step                        =      200
redata: Length of MD time step                      =     1.0000 fs
redata: Initial Temperature of MD run               =     0.0000 K
redata: Perform a MD quench                         =   F
mix.SCF: Pulay mixing                            = Pulay
mix.SCF:    Variant                              = stable
mix.SCF:    History steps                        = 6
mix.SCF:    Linear mixing weight                 =     0.020000
mix.SCF:    Mixing weight                        =     0.020000
mix.SCF:    SVD condition                        = 0.1000E-07
redata: Save all siesta data in one NC              =   F
redata: ***********************************************************************

%block SCF.Mixers
  Pulay
%endblock SCF.Mixers

%block SCF.Mixer.Pulay
  # Mixing method
  method pulay
  variant stable

  # Mixing options
  weight 0.0200
  weight.linear 0.0200
  history 6
%endblock SCF.Mixer.Pulay

Size of DM history Fstack: 1
Total number of electrons:    14.000000
Total ionic charge:    14.000000
 Kpoints in:            1 . Kpoints trimmed:            1

siesta: k-grid: Number of k-points = 1
siesta: k-points from Monkhorst-Pack grid
siesta: k-cutoff (effective) =     5.000 Ang
siesta: k-point supercell and displacements
siesta: k-grid:     1     0     0      0.000
siesta: k-grid:     0     1     0      0.000
siesta: k-grid:     0     0     1      0.000

diag: Algorithm                                     = D&C
diag: Used triangular part                          = Lower
diag: Absolute tolerance                            =  0.100E-15
diag: Orthogonalization factor                      =  0.100E-05
diag: Memory factor                                 =  1.0000


ts: **************************************************************
ts: Save H and S matrices                           =    F
ts: Save DM and EDM matrices                        =    F
ts: Only save the overlap matrix S                  =    F
ts: **************************************************************

************************ Begin: TS CHECKS AND WARNINGS ************************
************************ End: TS CHECKS AND WARNINGS **************************


                     ====================================
                        Begin MD step =      1
                     ====================================

outcell: Unit cell vectors (Ang):
       10.000004    0.000000    0.000000
        0.000000   10.000004    0.000000
        0.000000    0.000000   10.000004

outcell: Cell vector modules (Ang)   :   10.000004   10.000004   10.000004
outcell: Cell angles (23,13,12) (deg):     90.0000     90.0000     90.0000
outcell: Cell volume (Ang**3)        :   1000.0012
Gamma-point calculation with multiply-connected orbital pairs
Gamma-point calculation with multiply-connected orbital pairs
Folding of H and S implicitly performed
Folding of H and S implicitly performed
<dSpData1D:S at geom step 1
  <sparsity:sparsity for geom step 1
    nrows_g=26 nrows=26 sparsity=1.0000 nnzs=676, refcount: 7>
  <dData1D:(new from dSpData1D) n=676, refcount: 1>
refcount: 1>
new_DM -- step:     1
Initializing Density Matrix...

Attempting to read DM from file... Failed...
DM filled with atomic data:
<dSpData2D:DM initialized from atoms
  <sparsity:sparsity for geom step 1
    nrows_g=26 nrows=26 sparsity=1.0000 nnzs=676, refcount: 8>
  <dData2D:DM n=676 m=1, refcount: 1>
refcount: 1>
No. of atoms with KB's overlaping orbs in proc 0. Max # of overlaps:       4      22

InitMesh: MESH = 90 x 90 x 90 = 729000
InitMesh: Mesh cutoff (required, used) =   200.000   223.865 Ry
New grid distribution [1]: sub = 2

stepf: Fermi-Dirac step function

siesta: Program's energy decomposition (eV):
siesta: Ebs     =      -210.757325
siesta: Eions   =      1581.702395
siesta: Ena     =       338.376163
siesta: Ekin    =       625.103938
siesta: Enl     =       -91.073547
siesta: Eso     =         0.000000
siesta: Edftu   =         0.000000
siesta: DEna    =        14.326100
siesta: DUscf   =         1.615007
siesta: DUext   =         0.000000
siesta: Ex      =      -190.629596
siesta: Ec      =       -13.830780
siesta: Exc     =      -204.460375
siesta: EbV     =         0.000000
siesta: eta*DQ  =         0.000000
siesta: Emadel  =         0.000000
siesta: Emeta   =         0.000000
siesta: Emolmec =         0.000000
siesta: Ekinion =         0.000000
siesta: Eharris =      -900.001588
siesta: Etot    =      -897.815110
siesta: FreeEng =      -897.884425

        iscf     Eharris(eV)        E_KS(eV)     FreeEng(eV)     dDmax    Ef(eV) dHmax(eV)
   scf:    1     -900.001588     -897.815110     -897.884425  0.774030 -4.641324  2.438075
timer: Routine,Calls,Time,% = IterSCF        1       0.562  24.81
   scf:    2     -897.853639     -897.834433     -897.903748  0.001863 -4.674128  2.371582
   scf:    3     -898.285319     -898.124548     -898.193862  0.065446 -5.760760  0.203392
   scf:    4     -898.125807     -898.126296     -898.195610  0.008252 -5.683627  0.360812
   scf:    5     -898.128646     -898.127816     -898.197125  0.007466 -5.881185  0.054601
   scf:    6     -898.127937     -898.128025     -898.197337  0.011696 -5.867895  0.014090
   scf:    7     -898.128064     -898.128067     -898.197381  0.005226 -5.870444  0.006294
   scf:    8     -898.128045     -898.128057     -898.197372  0.000338 -5.866515  0.012599
   scf:    9     -898.128078     -898.128070     -898.197385  0.000456 -5.868940  0.000185
   scf:   10     -898.128070     -898.128070     -898.197385  0.000008 -5.868934  0.000166

SCF Convergence by DM+H criterion
max |DM_out - DM_in|         :     0.0000083657
max |H_out - H_in|      (eV) :     0.0001655031
SCF cycle converged after 10 iterations

Using DM_out to compute the final energy and forces
No. of atoms with KB's overlaping orbs in proc 0. Max # of overlaps:       4      22

siesta: E_KS(eV) =             -898.1281

siesta: E_KS - E_eggbox =      -898.1281

siesta: Atomic forces (eV/Ang):
----------------------------------------
   Tot    0.011617    0.005106    0.001736
----------------------------------------
   Max    5.166421
   Res    2.115317    sqrt( Sum f_i^2 / 3N )
----------------------------------------
   Max    5.166421    constrained

Stress tensor Voigt[x,y,z,yz,xz,xy] (kbar):      -18.53       -0.42       -0.25       -0.22       -0.04       -0.20
(Free)E + p*V (eV/cell)     -894.2040
Target enthalpy (eV/cell)     -898.1974

siesta: Stress tensor (static) (eV/Ang**3):
        -0.004317   -0.000008    0.000001
        -0.000008    0.000005    0.000000
         0.000001    0.000000    0.000006

siesta: Pressure (static):          2.29966301  kBar

siesta: Stress tensor (total) (eV/Ang**3):
        -0.011567   -0.000127   -0.000024
        -0.000127   -0.000260   -0.000139
        -0.000024   -0.000139   -0.000154

siesta: Pressure (total):          6.39802154  kBar

siesta: Temp_ion =    9894.775 K

                     ====================================
                        Begin MD step =      2
                     ====================================

outcell: Unit cell vectors (Ang):
       10.000004    0.000000    0.000000
        0.000000   10.000004    0.000000
        0.000000    0.000000   10.000004

outcell: Cell vector modules (Ang)   :   10.000004   10.000004   10.000004
outcell: Cell angles (23,13,12) (deg):     90.0000     90.0000     90.0000
outcell: Cell volume (Ang**3)        :   1000.0012
<dSpData1D:S at geom step 2
  <sparsity:sparsity for geom step 2
    nrows_g=26 nrows=26 sparsity=.9763 nnzs=660, refcount: 7>
  <dData1D:(new from dSpData1D) n=660, refcount: 1>
refcount: 1>
new_DM -- step:     2
Re-using DM from previous geometries...
Number of DMs in history: 1
 DM extrapolation coefficients: 
1   1.00000
New DM after history re-use:
<dSpData2D:SpM extrapolated using coords
  <sparsity:sparsity for geom step 2
    nrows_g=26 nrows=26 sparsity=.9763 nnzs=660, refcount: 9>
  <dData2D:(temp array for extrapolation) n=660 m=1, refcount: 1>
refcount: 1>
Note: For starting DM, Qtot, Tr[D*S] =         14.00000000         13.97767595
No. of atoms with KB's overlaping orbs in proc 0. Max # of overlaps:       4      18

InitMesh: MESH = 90 x 90 x 90 = 729000
InitMesh: Mesh cutoff (required, used) =   200.000   223.865 Ry
New grid distribution [1]: sub = 2

        iscf     Eharris(eV)        E_KS(eV)     FreeEng(eV)     dDmax    Ef(eV) dHmax(eV)
   scf:    1     -898.253930     -898.329112     -898.398427  0.011852 -5.655547  0.251523
   scf:    2     -898.327852     -898.328893     -898.398206  0.004429 -5.881741  0.101197
   scf:    3     -898.329464     -898.329201     -898.398515  0.001434 -5.843532  0.069117
   scf:    4     -898.329401     -898.329418     -898.398731  0.005219 -5.856870  0.016920
   scf:    5     -898.329360     -898.329425     -898.398738  0.006326 -5.859353  0.012706
   scf:    6     -898.329462     -898.329454     -898.398769  0.002760 -5.868356  0.008115
   scf:    7     -898.329459     -898.329458     -898.398773  0.000557 -5.866357  0.001026
   scf:    8     -898.329458     -898.329458     -898.398773  0.000121 -5.866632  0.000227

SCF Convergence by DM+H criterion
max |DM_out - DM_in|         :     0.0001214939
max |H_out - H_in|      (eV) :     0.0002270387
SCF cycle converged after 8 iterations

Using DM_out to compute the final energy and forces
No. of atoms with KB's overlaping orbs in proc 0. Max # of overlaps:       4      18

siesta: E_KS(eV) =             -898.3295

siesta: Atomic forces (eV/Ang):
----------------------------------------
   Tot    0.000674    0.000176    0.000169
----------------------------------------
   Max    2.718777
   Res    1.132931    sqrt( Sum f_i^2 / 3N )
----------------------------------------
   Max    2.718777    constrained

Stress tensor Voigt[x,y,z,yz,xz,xy] (kbar):      -15.98       -0.42       -0.26       -0.23       -0.27       -0.36
(Free)E + p*V (eV/cell)     -894.9322
Target enthalpy (eV/cell)     -898.3988

siesta: Stress tensor (static) (eV/Ang**3):
        -0.002722   -0.000104   -0.000145
        -0.000104    0.000001   -0.000007
        -0.000145   -0.000007   -0.000004

siesta: Pressure (static):          1.45563879  kBar

siesta: Stress tensor (total) (eV/Ang**3):
        -0.009972   -0.000223   -0.000170
        -0.000223   -0.000264   -0.000146
        -0.000170   -0.000146   -0.000164

siesta: Pressure (total):          5.55399732  kBar

siesta: Temp_ion =   10292.392 K

                     ====================================
                        Begin MD step =      3
                     ====================================

outcell: Unit cell vectors (Ang):
       10.000004    0.000000    0.000000
        0.000000   10.000004    0.000000
        0.000000    0.000000   10.000004

outcell: Cell vector modules (Ang)   :   10.000004   10.000004   10.000004
outcell: Cell angles (23,13,12) (deg):     90.0000     90.0000     90.0000
outcell: Cell volume (Ang**3)        :   1000.0012
Gamma-point calculation with multiply-connected orbital pairs
Gamma-point calculation with multiply-connected orbital pairs
Folding of H and S implicitly performed
Folding of H and S implicitly performed
<dSpData1D:S at geom step 3
  <sparsity:sparsity for geom step 3
    nrows_g=26 nrows=26 sparsity=1.0000 nnzs=676, refcount: 7>
  <dData1D:(new from dSpData1D) n=676, refcount: 1>
refcount: 1>
new_DM -- step:     3
Re-using DM from previous geometries...
Number of DMs in history: 1
 DM extrapolation coefficients: 
1   1.00000
New DM after history re-use:
<dSpData2D:SpM extrapolated using coords
  <sparsity:sparsity for geom step 3
    nrows_g=26 nrows=26 sparsity=1.0000 nnzs=676, refcount: 9>
  <dData2D:(temp array for extrapolation) n=676 m=1, refcount: 1>
refcount: 1>
Note: For starting DM, Qtot, Tr[D*S] =         14.00000000         13.94725050
No. of atoms with KB's overlaping orbs in proc 0. Max # of overlaps:       4      22

InitMesh: MESH = 90 x 90 x 90 = 729000
InitMesh: Mesh cutoff (required, used) =   200.000   223.865 Ry
New grid distribution [1]: sub = 2

        iscf     Eharris(eV)        E_KS(eV)     FreeEng(eV)     dDmax    Ef(eV) dHmax(eV)
   scf:    1     -898.235168     -898.427147     -898.496461  0.024295 -5.370330  0.594581
   scf:    2     -898.419819     -898.425764     -898.495048  0.022662 -5.906495  0.242187
   scf:    3     -898.428948     -898.427483     -898.496786  0.007111 -5.819953  0.166896
   scf:    4     -898.428051     -898.428608     -898.497903  0.023897 -5.850229  0.039228
   scf:    5     -898.428594     -898.428839     -898.498150  0.016355 -5.853993  0.031880
   scf:    6     -898.428891     -898.428887     -898.498199  0.001707 -5.874482  0.028902
   scf:    7     -898.428983     -898.428964     -898.498278  0.004510 -5.871084  0.002262
   scf:    8     -898.428963     -898.428964     -898.498278  0.000386 -5.871590  0.000935
   scf:    9     -898.428964     -898.428964     -898.498278  0.000037 -5.871994  0.000388

SCF Convergence by DM+H criterion
max |DM_out - DM_in|         :     0.0000370190
max |H_out - H_in|      (eV) :     0.0003879025
SCF cycle converged after 9 iterations

Using DM_out to compute the final energy and forces
No. of atoms with KB's overlaping orbs in proc 0. Max # of overlaps:       4      22

siesta: E_KS(eV) =             -898.4290

siesta: Atomic forces (eV/Ang):
----------------------------------------
   Tot   -0.004261   -0.004061   -0.000739
----------------------------------------
   Max    0.600646
   Res    0.319200    sqrt( Sum f_i^2 / 3N )
----------------------------------------
   Max    0.600646    constrained

Stress tensor Voigt[x,y,z,yz,xz,xy] (kbar):      -12.17       -0.42       -0.25       -0.23       -0.28       -0.36
(Free)E + p*V (eV/cell)     -895.8275
Target enthalpy (eV/cell)     -898.4983

siesta: Stress tensor (static) (eV/Ang**3):
        -0.000053    0.000036    0.000068
         0.000036    0.000009    0.000006
         0.000068    0.000006    0.000015

siesta: Pressure (static):          0.01592712  kBar

siesta: Stress tensor (total) (eV/Ang**3):
        -0.007596   -0.000227   -0.000177
        -0.000227   -0.000260   -0.000141
        -0.000177   -0.000141   -0.000156

siesta: Pressure (total):          4.27897617  kBar

siesta: Temp_ion =   10541.177 K

                     ====================================
                        Begin MD step =      4
                     ====================================

outcell: Unit cell vectors (Ang):
       10.000004    0.000000    0.000000
        0.000000   10.000004    0.000000
        0.000000    0.000000   10.000004

outcell: Cell vector modules (Ang)   :   10.000004   10.000004   10.000004
outcell: Cell angles (23,13,12) (deg):     90.0000     90.0000     90.0000
outcell: Cell volume (Ang**3)        :   1000.0012
<dSpData1D:S at geom step 4
  <sparsity:sparsity for geom step 4
    nrows_g=26 nrows=26 sparsity=1.0000 nnzs=676, refcount: 7>
  <dData1D:(new from dSpData1D) n=676, refcount: 1>
refcount: 1>
new_DM -- step:     4
Re-using DM from previous geometries...
Number of DMs in history: 1
 DM extrapolation coefficients: 
1   1.00000
New DM after history re-use:
<dSpData2D:SpM extrapolated using coords
  <sparsity:sparsity for geom step 4
    nrows_g=26 nrows=26 sparsity=1.0000 nnzs=676, refcount: 9>
  <dData2D:(temp array for extrapolation) n=676 m=1, refcount: 1>
refcount: 1>
Note: For starting DM, Qtot, Tr[D*S] =         14.00000000         13.94402746
No. of atoms with KB's overlaping orbs in proc 0. Max # of overlaps:       4      22

InitMesh: MESH = 90 x 90 x 90 = 729000
InitMesh: Mesh cutoff (required, used) =   200.000   223.865 Ry
New grid distribution [1]: sub = 2

        iscf     Eharris(eV)        E_KS(eV)     FreeEng(eV)     dDmax    Ef(eV) dHmax(eV)
   scf:    1     -898.042659     -898.274696     -898.344009  0.022172 -5.349428  0.651553
   scf:    2     -898.247952     -898.267401     -898.336425  0.048419 -5.921829  0.335412
   scf:    3     -898.277724     -898.273146     -898.342362  0.018782 -5.807111  0.246696
   scf:    4     -898.270461     -898.275248     -898.344437  0.054958 -5.859830  0.045772
   scf:    5     -898.276513     -898.276795     -898.346109  0.031830 -5.863899  0.034214
   scf:    6     -898.276811     -898.276804     -898.346118  0.000683 -5.868161  0.033386
   scf:    7     -898.276966     -898.276906     -898.346221  0.001916 -5.883746  0.002166
   scf:    8     -898.276906     -898.276906     -898.346221  0.000194 -5.883371  0.002049
   scf:    9     -898.276905     -898.276905     -898.346220  0.000467 -5.884816  0.000870
   scf:   10     -898.276906     -898.276906     -898.346220  0.000104 -5.884951  0.000740

SCF Convergence by DM+H criterion
max |DM_out - DM_in|         :     0.0001039145
max |H_out - H_in|      (eV) :     0.0007396769
SCF cycle converged after 10 iterations

Using DM_out to compute the final energy and forces
No. of atoms with KB's overlaping orbs in proc 0. Max # of overlaps:       4      22

siesta: E_KS(eV) =             -898.2769

siesta: Atomic forces (eV/Ang):
----------------------------------------
   Tot   -0.007492   -0.006809   -0.001180
----------------------------------------
   Max    2.307526
   Res    0.974577    sqrt( Sum f_i^2 / 3N )
----------------------------------------
   Max    2.307526    constrained

Stress tensor Voigt[x,y,z,yz,xz,xy] (kbar):       -9.57       -0.38       -0.17       -0.17        0.12       -0.10
(Free)E + p*V (eV/cell)     -896.2406
Target enthalpy (eV/cell)     -898.3462

siesta: Stress tensor (static) (eV/Ang**3):
         0.001752    0.000245    0.000386
         0.000245    0.000034    0.000044
         0.000386    0.000044    0.000073

siesta: Pressure (static):         -0.99258112  kBar

siesta: Stress tensor (total) (eV/Ang**3):
        -0.005975   -0.000061    0.000076
        -0.000061   -0.000239   -0.000106
         0.000076   -0.000106   -0.000103

siesta: Pressure (total):          3.37351350  kBar

siesta: Temp_ion =   10198.585 K

                     ====================================
                        Begin MD step =      5
                     ====================================

outcell: Unit cell vectors (Ang):
       10.000004    0.000000    0.000000
        0.000000   10.000004    0.000000
        0.000000    0.000000   10.000004

outcell: Cell vector modules (Ang)   :   10.000004   10.000004   10.000004
outcell: Cell angles (23,13,12) (deg):     90.0000     90.0000     90.0000
outcell: Cell volume (Ang**3)        :   1000.0012
<dSpData1D:S at geom step 5
  <sparsity:sparsity for geom step 5
    nrows_g=26 nrows=26 sparsity=1.0000 nnzs=676, refcount: 7>
  <dData1D:(new from dSpData1D) n=676, refcount: 1>
refcount: 1>
new_DM -- step:     5
Re-using DM from previous geometries...
Number of DMs in history: 1
 DM extrapolation coefficients: 
1   1.00000
New DM after history re-use:
<dSpData2D:SpM extrapolated using coords
  <sparsity:sparsity for geom step 5
    nrows_g=26 nrows=26 sparsity=1.0000 nnzs=676, refcount: 9>
  <dData2D:(temp array for extrapolation) n=676 m=1, refcount: 1>
refcount: 1>
Note: For starting DM, Qtot, Tr[D*S] =         14.00000000         13.96568637
No. of atoms with KB's overlaping orbs in proc 0. Max # of overlaps:       4      22

InitMesh: MESH = 90 x 90 x 90 = 729000
InitMesh: Mesh cutoff (required, used) =   200.000   223.865 Ry
New grid distribution [1]: sub = 2

        iscf     Eharris(eV)        E_KS(eV)     FreeEng(eV)     dDmax    Ef(eV) dHmax(eV)
   scf:    1     -897.988811     -898.128648     -898.197958  0.012947 -5.571679  0.415349
   scf:    2     -898.094537     -898.118372     -898.187049  0.076602 -5.928868  0.312255
   scf:    3     -898.131626     -898.126023     -898.195151  0.031850 -5.838997  0.225068
   scf:    4     -898.122068     -898.127938     -898.197129  0.065331 -5.885739  0.079831
   scf:    5     -898.129040     -898.129503     -898.198815  0.033352 -5.890804  0.018863
   scf:    6     -898.129540     -898.129527     -898.198841  0.002334 -5.894324  0.019285
   scf:    7     -898.129586     -898.129564     -898.198879  0.001595 -5.905316  0.001601
   scf:    8     -898.129565     -898.129564     -898.198879  0.000226 -5.904723  0.001894
   scf:    9     -898.129564     -898.129564     -898.198879  0.000413 -5.905776  0.001190
   scf:   10     -898.129564     -898.129564     -898.198879  0.000034 -5.905843  0.000972

SCF Convergence by DM+H criterion
max |DM_out - DM_in|         :     0.0000335184
max |H_out - H_in|      (eV) :     0.0009722575
SCF cycle converged after 10 iterations

Using DM_out to compute the final energy and forces
No. of atoms with KB's overlaping orbs in proc 0. Max # of overlaps:       4      22

siesta: E_KS(eV) =             -898.1296

siesta: Atomic forces (eV/Ang):
----------------------------------------
   Tot   -0.011902   -0.007554   -0.001162
----------------------------------------
   Max    2.901210
   Res    1.222717    sqrt( Sum f_i^2 / 3N )
----------------------------------------
   Max    2.901210    constrained

Stress tensor Voigt[x,y,z,yz,xz,xy] (kbar):       -7.83       -0.32       -0.02       -0.07        0.66        0.26
(Free)E + p*V (eV/cell)     -896.5000
Target enthalpy (eV/cell)     -898.1989

siesta: Stress tensor (static) (eV/Ang**3):
         0.002612    0.000401    0.000622
         0.000401    0.000061    0.000088
         0.000622    0.000088    0.000140

siesta: Pressure (static):         -1.50223492  kBar

siesta: Stress tensor (total) (eV/Ang**3):
        -0.004886    0.000160    0.000411
         0.000160   -0.000200   -0.000046
         0.000411   -0.000046   -0.000011

siesta: Pressure (total):          2.72196000  kBar

siesta: Temp_ion =    9841.062 K

                     ====================================
                        Begin MD step =      6
                     ====================================

outcell: Unit cell vectors (Ang):
       10.000004    0.000000    0.000000
        0.000000   10.000004    0.000000
        0.000000    0.000000   10.000004

outcell: Cell vector modules (Ang)   :   10.000004   10.000004   10.000004
outcell: Cell angles (23,13,12) (deg):     90.0000     90.0000     90.0000
outcell: Cell volume (Ang**3)        :   1000.0012
<dSpData1D:S at geom step 6
  <sparsity:sparsity for geom step 6
    nrows_g=26 nrows=26 sparsity=1.0000 nnzs=676, refcount: 7>
  <dData1D:(new from dSpData1D) n=676, refcount: 1>
refcount: 1>
new_DM -- step:     6
Re-using DM from previous geometries...
Number of DMs in history: 1
 DM extrapolation coefficients: 
1   1.00000
New DM after history re-use:
<dSpData2D:SpM extrapolated using coords
  <sparsity:sparsity for geom step 6
    nrows_g=26 nrows=26 sparsity=1.0000 nnzs=676, refcount: 9>
  <dData2D:(temp array for extrapolation) n=676 m=1, refcount: 1>
refcount: 1>
No. of atoms with KB's overlaping orbs in proc 0. Max # of overlaps:       4      22

InitMesh: MESH = 90 x 90 x 90 = 729000
InitMesh: Mesh cutoff (required, used) =   200.000   223.865 Ry
New grid distribution [1]: sub = 2

        iscf     Eharris(eV)        E_KS(eV)     FreeEng(eV)     dDmax    Ef(eV) dHmax(eV)
   scf:    1     -898.153776     -898.131696     -898.201008  0.009287 -5.908257  0.032459
   scf:    2     -898.116436     -898.126918     -898.195830  0.054804 -5.933451  0.061005
   scf:    3     -898.132612     -898.131689     -898.200999  0.045074 -5.913979  0.022192
   scf:    4     -898.131681     -898.131737     -898.201051  0.007205 -5.926415  0.019225
   scf:    5     -898.131702     -898.131739     -898.201053  0.004245 -5.929329  0.007407
   scf:    6     -898.131750     -898.131745     -898.201060  0.000936 -5.931817  0.005502
   scf:    7     -898.131751     -898.131751     -898.201065  0.001439 -5.934940  0.000222
   scf:    8     -898.131751     -898.131751     -898.201065  0.000037 -5.934997  0.000155

SCF Convergence by DM+H criterion
max |DM_out - DM_in|         :     0.0000370492
max |H_out - H_in|      (eV) :     0.0001551556
SCF cycle converged after 8 iterations

Using DM_out to compute the final energy and forces
No. of atoms with KB's overlaping orbs in proc 0. Max # of overlaps:       4      22

siesta: E_KS(eV) =             -898.1318

siesta: Atomic forces (eV/Ang):
----------------------------------------
   Tot   -0.013578   -0.007083   -0.000070
----------------------------------------
   Max    2.891487
   Res    1.225468    sqrt( Sum f_i^2 / 3N )
----------------------------------------
   Max    2.891487    constrained

Stress tensor Voigt[x,y,z,yz,xz,xy] (kbar):       -7.26       -0.25        0.14        0.03        1.05        0.51
(Free)E + p*V (eV/cell)     -896.6678
Target enthalpy (eV/cell)     -898.2011

siesta: Stress tensor (static) (eV/Ang**3):
         0.002760    0.000468    0.000723
         0.000468    0.000082    0.000121
         0.000723    0.000121    0.000190

siesta: Pressure (static):         -1.61950387  kBar

siesta: Stress tensor (total) (eV/Ang**3):
        -0.004530    0.000321    0.000656
         0.000321   -0.000158    0.000019
         0.000656    0.000019    0.000088

siesta: Pressure (total):          2.45660705  kBar

siesta: Temp_ion =    9847.192 K

                     ====================================
                        Begin MD step =      7
                     ====================================

outcell: Unit cell vectors (Ang):
       10.000004    0.000000    0.000000
        0.000000   10.000004    0.000000
        0.000000    0.000000   10.000004

outcell: Cell vector modules (Ang)   :   10.000004   10.000004   10.000004
outcell: Cell angles (23,13,12) (deg):     90.0000     90.0000     90.0000
outcell: Cell volume (Ang**3)        :   1000.0012
Gamma-point calculation with multiply-connected orbital pairs
Gamma-point calculation with multiply-connected orbital pairs
Folding of H and S implicitly performed
Folding of H and S implicitly performed
<dSpData1D:S at geom step 7
  <sparsity:sparsity for geom step 7
    nrows_g=26 nrows=26 sparsity=1.0000 nnzs=676, refcount: 7>
  <dData1D:(new from dSpData1D) n=676, refcount: 1>
refcount: 1>
new_DM -- step:     7
Re-using DM from previous geometries...
Number of DMs in history: 1
 DM extrapolation coefficients: 
1   1.00000
New DM after history re-use:
<dSpData2D:SpM extrapolated using coords
  <sparsity:sparsity for geom step 7
    nrows_g=26 nrows=26 sparsity=1.0000 nnzs=676, refcount: 9>
  <dData2D:(temp array for extrapolation) n=676 m=1, refcount: 1>
refcount: 1>
Note: For starting DM, Qtot, Tr[D*S] =         14.00000000         14.03418167
No. of atoms with KB's overlaping orbs in proc 0. Max # of overlaps:       4      26

InitMesh: MESH = 90 x 90 x 90 = 729000
InitMesh: Mesh cutoff (required, used) =   200.000   223.865 Ry
New grid distribution [1]: sub = 2

        iscf     Eharris(eV)        E_KS(eV)     FreeEng(eV)     dDmax    Ef(eV) dHmax(eV)
   scf:    1     -898.463143     -898.286221     -898.355536  0.011977 -6.256523  0.429921
   scf:    2     -898.231365     -898.269963     -898.339226  0.032662 -5.937651  0.521286
   scf:    3     -898.295213     -898.285912     -898.355221  0.018836 -6.097186  0.296913
   scf:    4     -898.287014     -898.287678     -898.356963  0.019210 -5.986703  0.027411
   scf:    5     -898.288018     -898.288019     -898.357334  0.010725 -5.981617  0.026881
   scf:    6     -898.288020     -898.288028     -898.357342  0.001564 -5.984462  0.021148
   scf:    7     -898.288099     -898.288075     -898.357389  0.001567 -5.970291  0.001424
   scf:    8     -898.288075     -898.288075     -898.357389  0.000106 -5.970519  0.001149
   scf:    9     -898.288074     -898.288075     -898.357389  0.000245 -5.969803  0.000462

SCF Convergence by DM+H criterion
max |DM_out - DM_in|         :     0.0002445032
max |H_out - H_in|      (eV) :     0.0004624777
SCF cycle converged after 9 iterations

Using DM_out to compute the final energy and forces
No. of atoms with KB's overlaping orbs in proc 0. Max # of overlaps:       4      26

siesta: E_KS(eV) =             -898.2881

siesta: Atomic forces (eV/Ang):
----------------------------------------
   Tot   -0.016607   -0.004569    0.001007
----------------------------------------
   Max    2.329445
   Res    0.994723    sqrt( Sum f_i^2 / 3N )
----------------------------------------
   Max    2.329445    constrained

Stress tensor Voigt[x,y,z,yz,xz,xy] (kbar):       -8.19       -0.22        0.23        0.09        1.06        0.52
(Free)E + p*V (eV/cell)     -896.6558
Target enthalpy (eV/cell)     -898.3574

siesta: Stress tensor (static) (eV/Ang**3):
         0.002255    0.000408    0.000630
         0.000408    0.000083    0.000124
         0.000630    0.000124    0.000195

siesta: Pressure (static):         -1.35242248  kBar

siesta: Stress tensor (total) (eV/Ang**3):
        -0.005110    0.000326    0.000662
         0.000326   -0.000136    0.000054
         0.000662    0.000054    0.000141

siesta: Pressure (total):          2.72622747  kBar

siesta: Temp_ion =   10230.032 K

                     ====================================
                        Begin MD step =      8
                     ====================================

outcell: Unit cell vectors (Ang):
       10.000004    0.000000    0.000000
        0.000000   10.000004    0.000000
        0.000000    0.000000   10.000004

outcell: Cell vector modules (Ang)   :   10.000004   10.000004   10.000004
outcell: Cell angles (23,13,12) (deg):     90.0000     90.0000     90.0000
outcell: Cell volume (Ang**3)        :   1000.0012
<dSpData1D:S at geom step 8
  <sparsity:sparsity for geom step 8
    nrows_g=26 nrows=26 sparsity=1.0000 nnzs=676, refcount: 7>
  <dData1D:(new from dSpData1D) n=676, refcount: 1>
refcount: 1>
new_DM -- step:     8
Re-using DM from previous geometries...
Number of DMs in history: 1
 DM extrapolation coefficients: 
1   1.00000
New DM after history re-use:
<dSpData2D:SpM extrapolated using coords
  <sparsity:sparsity for geom step 8
    nrows_g=26 nrows=26 sparsity=1.0000 nnzs=676, refcount: 9>
  <dData2D:(temp array for extrapolation) n=676 m=1, refcount: 1>
refcount: 1>
Note: For starting DM, Qtot, Tr[D*S] =         14.00000000         14.06039068
No. of atoms with KB's overlaping orbs in proc 0. Max # of overlaps:       4      26

InitMesh: MESH = 90 x 90 x 90 = 729000
InitMesh: Mesh cutoff (required, used) =   200.000   223.865 Ry
New grid distribution [1]: sub = 2

        iscf     Eharris(eV)        E_KS(eV)     FreeEng(eV)     dDmax    Ef(eV) dHmax(eV)
   scf:    1     -898.721915     -898.462292     -898.531605  0.022254 -6.518780  0.796194
   scf:    2     -898.219807     -898.389560     -898.458679  0.075175 -5.946041  1.085683
   scf:    3     -898.500418     -898.462068     -898.531366  0.047123 -6.264014  0.562416
   scf:    4     -898.464707     -898.467460     -898.536669  0.043376 -6.036911  0.050761
   scf:    5     -898.469033     -898.468524     -898.537824  0.016368 -6.028222  0.050456
   scf:    6     -898.468552     -898.468726     -898.538040  0.012499 -6.031889  0.038716
   scf:    7     -898.468968     -898.468885     -898.538200  0.003398 -6.007665  0.004901
   scf:    8     -898.468888     -898.468887     -898.538202  0.000588 -6.008520  0.002144
   scf:    9     -898.468886     -898.468887     -898.538202  0.000542 -6.007246  0.000618
   scf:   10     -898.468887     -898.468887     -898.538202  0.000080 -6.007219  0.000463

SCF Convergence by DM+H criterion
max |DM_out - DM_in|         :     0.0000798251
max |H_out - H_in|      (eV) :     0.0004630447
SCF cycle converged after 10 iterations

Using DM_out to compute the final energy and forces
No. of atoms with KB's overlaping orbs in proc 0. Max # of overlaps:       4      26

siesta: E_KS(eV) =             -898.4689

siesta: Atomic forces (eV/Ang):
----------------------------------------
   Tot   -0.016432   -0.002318    0.002372
----------------------------------------
   Max    0.826595
   Res    0.349854    sqrt( Sum f_i^2 / 3N )
----------------------------------------
   Max    0.826595    constrained

Stress tensor Voigt[x,y,z,yz,xz,xy] (kbar):      -10.85       -0.27        0.11        0.01        0.43        0.11
(Free)E + p*V (eV/cell)     -896.2465
Target enthalpy (eV/cell)     -898.5382

siesta: Stress tensor (static) (eV/Ang**3):
         0.000934    0.000142    0.000222
         0.000142    0.000036    0.000054
         0.000222    0.000054    0.000088

siesta: Pressure (static):         -0.56558658  kBar

siesta: Stress tensor (total) (eV/Ang**3):
        -0.006773    0.000070    0.000270
         0.000070   -0.000169    0.000005
         0.000270    0.000005    0.000067

siesta: Pressure (total):          3.67163334  kBar

siesta: Temp_ion =   10649.319 K

                     ====================================
                        Begin MD step =      9
                     ====================================

outcell: Unit cell vectors (Ang):
       10.000004    0.000000    0.000000
        0.000000   10.000004    0.000000
        0.000000    0.000000   10.000004

outcell: Cell vector modules (Ang)   :   10.000004   10.000004   10.000004
outcell: Cell angles (23,13,12) (deg):     90.0000     90.0000     90.0000
outcell: Cell volume (Ang**3)        :   1000.0012
<dSpData1D:S at geom step 9
  <sparsity:sparsity for geom step 9
    nrows_g=26 nrows=26 sparsity=1.0000 nnzs=676, refcount: 7>
  <dData1D:(new from dSpData1D) n=676, refcount: 1>
refcount: 1>
new_DM -- step:     9
Re-using DM from previous geometries...
Number of DMs in history: 1
 DM extrapolation coefficients: 
1   1.00000
New DM after history re-use:
<dSpData2D:SpM extrapolated using coords
  <sparsity:sparsity for geom step 9
    nrows_g=26 nrows=26 sparsity=1.0000 nnzs=676, refcount: 9>
  <dData2D:(temp array for extrapolation) n=676 m=1, refcount: 1>
refcount: 1>
Note: For starting DM, Qtot, Tr[D*S] =         14.00000000         14.06341307
No. of atoms with KB's overlaping orbs in proc 0. Max # of overlaps:       4      26

InitMesh: MESH = 90 x 90 x 90 = 729000
InitMesh: Mesh cutoff (required, used) =   200.000   223.865 Ry
New grid distribution [1]: sub = 2

        iscf     Eharris(eV)        E_KS(eV)     FreeEng(eV)     dDmax    Ef(eV) dHmax(eV)
   scf:    1     -898.640819     -898.411847     -898.481155  0.025124 -6.564296  0.884639
   scf:    2     -897.927847     -898.265007     -898.333547  0.085510 -5.975953  1.459828
   scf:    3     -898.479121     -898.415122     -898.484401  0.059231 -6.354539  0.608564
   scf:    4     -898.405377     -898.417029     -898.485935  0.064990 -6.088227  0.067781
   scf:    5     -898.422542     -898.420433     -898.489643  0.024471 -6.070937  0.055427
   scf:    6     -898.421644     -898.421718     -898.491033  0.025330 -6.073469  0.039417
   scf:    7     -898.421838     -898.421822     -898.491133  0.004599 -6.045989  0.014503
   scf:    8     -898.421864     -898.421865     -898.491179  0.004398 -6.048808  0.002271
   scf:    9     -898.421864     -898.421865     -898.491179  0.000586 -6.047709  0.002050
   scf:   10     -898.421864     -898.421864     -898.491179  0.000227 -6.047870  0.001249
   scf:   11     -898.421865     -898.421865     -898.491179  0.000081 -6.047847  0.000944

SCF Convergence by DM+H criterion
max |DM_out - DM_in|         :     0.0000814573
max |H_out - H_in|      (eV) :     0.0009435058
SCF cycle converged after 11 iterations

Using DM_out to compute the final energy and forces
No. of atoms with KB's overlaping orbs in proc 0. Max # of overlaps:       4      26

siesta: E_KS(eV) =             -898.4219

siesta: Atomic forces (eV/Ang):
----------------------------------------
   Tot   -0.016229   -0.000186    0.002824
----------------------------------------
   Max    2.111477
   Res    0.934856    sqrt( Sum f_i^2 / 3N )
----------------------------------------
   Max    2.111477    constrained

Stress tensor Voigt[x,y,z,yz,xz,xy] (kbar):      -14.57       -0.48       -0.38       -0.31       -0.93       -0.78
(Free)E + p*V (eV/cell)     -895.2803
Target enthalpy (eV/cell)     -898.4912

siesta: Stress tensor (static) (eV/Ang**3):
        -0.001043   -0.000394   -0.000598
        -0.000394   -0.000101   -0.000154
        -0.000598   -0.000154   -0.000229

siesta: Pressure (static):          0.73347245  kBar

siesta: Stress tensor (total) (eV/Ang**3):
        -0.009092   -0.000487   -0.000581
        -0.000487   -0.000301   -0.000196
        -0.000581   -0.000196   -0.000240

siesta: Pressure (total):          5.14435882  kBar

siesta: Temp_ion =   10520.790 K

                     ====================================
                        Begin MD step =     10
                     ====================================

outcell: Unit cell vectors (Ang):
       10.000004    0.000000    0.000000
        0.000000   10.000004    0.000000
        0.000000    0.000000   10.000004

outcell: Cell vector modules (Ang)   :   10.000004   10.000004   10.000004
outcell: Cell angles (23,13,12) (deg):     90.0000     90.0000     90.0000
outcell: Cell volume (Ang**3)        :   1000.0012
<dSpData1D:S at geom step 10
  <sparsity:sparsity for geom step 10
    nrows_g=26 nrows=26 sparsity=1.0000 nnzs=676, refcount: 7>
  <dData1D:(new from dSpData1D) n=676, refcount: 1>
refcount: 1>
new_DM -- step:    10
Re-using DM from previous geometries...
Number of DMs in history: 1
 DM extrapolation coefficients: 
1   1.00000
New DM after history re-use:
<dSpData2D:SpM extrapolated using coords
  <sparsity:sparsity for geom step 10
    nrows_g=26 nrows=26 sparsity=1.0000 nnzs=676, refcount: 9>
  <dData2D:(temp array for extrapolation) n=676 m=1, refcount: 1>
refcount: 1>
Note: For starting DM, Qtot, Tr[D*S] =         14.00000000         14.03446607
No. of atoms with KB's overlaping orbs in proc 0. Max # of overlaps:       4      26

InitMesh: MESH = 90 x 90 x 90 = 729000
InitMesh: Mesh cutoff (required, used) =   200.000   223.865 Ry
New grid distribution [1]: sub = 2

        iscf     Eharris(eV)        E_KS(eV)     FreeEng(eV)     dDmax    Ef(eV) dHmax(eV)
   scf:    1     -898.300084     -898.203438     -898.272748  0.017918 -6.321974  0.550749
   scf:    2     -897.725363     -898.057088     -898.125801  0.126800 -6.052379  1.455846
   scf:    3     -898.248497     -898.209673     -898.278980  0.102164 -6.260040  0.274934
   scf:    4     -898.202000     -898.208101     -898.277186  0.050606 -6.128634  0.082752
   scf:    5     -898.210700     -898.209580     -898.278795  0.014524 -6.113974  0.053663
   scf:    6     -898.210741     -898.210737     -898.280052  0.026733 -6.112515  0.019301
   scf:    7     -898.210772     -898.210764     -898.280078  0.002226 -6.096022  0.006996
   scf:    8     -898.210773     -898.210773     -898.280088  0.002406 -6.097318  0.001200
   scf:    9     -898.210773     -898.210773     -898.280088  0.000378 -6.096526  0.000705
   scf:   10     -898.210773     -898.210773     -898.280088  0.000115 -6.096733  0.000373

SCF Convergence by DM+H criterion
max |DM_out - DM_in|         :     0.0001145603
max |H_out - H_in|      (eV) :     0.0003730226
SCF cycle converged after 10 iterations

Using DM_out to compute the final energy and forces
No. of atoms with KB's overlaping orbs in proc 0. Max # of overlaps:       4      26

siesta: E_KS(eV) =             -898.2108

siesta: Atomic forces (eV/Ang):
----------------------------------------
   Tot   -0.010017    0.001265    0.003888
----------------------------------------
   Max    4.396576
   Res    2.064146    sqrt( Sum f_i^2 / 3N )
----------------------------------------
   Max    4.396576    constrained

Stress tensor Voigt[x,y,z,yz,xz,xy] (kbar):      -16.33       -0.77       -1.06       -0.76       -2.10       -1.54
(Free)E + p*V (eV/cell)     -894.5016
Target enthalpy (eV/cell)     -898.2801

siesta: Stress tensor (static) (eV/Ang**3):
        -0.002247   -0.000884   -0.001349
        -0.000884   -0.000280   -0.000429
        -0.001349   -0.000429   -0.000648

siesta: Pressure (static):          1.69616608  kBar

siesta: Stress tensor (total) (eV/Ang**3):
        -0.010189   -0.000961   -0.001309
        -0.000961   -0.000483   -0.000474
        -0.001309   -0.000474   -0.000663

siesta: Pressure (total):          6.05381623  kBar

siesta: Temp_ion =   10098.947 K

                     ====================================
                        Begin MD step =     11
                     ====================================

outcell: Unit cell vectors (Ang):
       10.000004    0.000000    0.000000
        0.000000   10.000004    0.000000
        0.000000    0.000000   10.000004

outcell: Cell vector modules (Ang)   :   10.000004   10.000004   10.000004
outcell: Cell angles (23,13,12) (deg):     90.0000     90.0000     90.0000
outcell: Cell volume (Ang**3)        :   1000.0012
<dSpData1D:S at geom step 11
  <sparsity:sparsity for geom step 11
    nrows_g=26 nrows=26 sparsity=1.0000 nnzs=676, refcount: 7>
  <dData1D:(new from dSpData1D) n=676, refcount: 1>
refcount: 1>
new_DM -- step:    11
Re-using DM from previous geometries...
Number of DMs in history: 1
 DM extrapolation coefficients: 
1   1.00000
New DM after history re-use:
<dSpData2D:SpM extrapolated using coords
  <sparsity:sparsity for geom step 11
    nrows_g=26 nrows=26 sparsity=1.0000 nnzs=676, refcount: 9>
  <dData2D:(temp array for extrapolation) n=676 m=1, refcount: 1>
refcount: 1>
No. of atoms with KB's overlaping orbs in proc 0. Max # of overlaps:       4      26

InitMesh: MESH = 90 x 90 x 90 = 729000
InitMesh: Mesh cutoff (required, used) =   200.000   223.865 Ry
New grid distribution [1]: sub = 2

        iscf     Eharris(eV)        E_KS(eV)     FreeEng(eV)     dDmax    Ef(eV) dHmax(eV)
   scf:    1     -898.287808     -898.369408     -898.438703  0.030510 -5.985230  0.423876
   scf:    2     -898.007417     -898.257844     -898.325498  0.122883 -6.178703  1.140369
   scf:    3     -898.396757     -898.373359     -898.442665  0.103511 -6.026970  0.183532
   scf:    4     -898.355888     -898.368418     -898.437232  0.066239 -6.127676  0.070762
   scf:    5     -898.375578     -898.373057     -898.442293  0.035061 -6.130584  0.053329
   scf:    6     -898.373790     -898.373815     -898.443129  0.021157 -6.164487  0.004939
   scf:    7     -898.373790     -898.373810     -898.443121  0.002779 -6.162550  0.004476
   scf:    8     -898.373822     -898.373821     -898.443135  0.002386 -6.165076  0.000741
   scf:    9     -898.373821     -898.373821     -898.443135  0.000144 -6.165037  0.000641

SCF Convergence by DM+H criterion
max |DM_out - DM_in|         :     0.0001443927
max |H_out - H_in|      (eV) :     0.0006413824
SCF cycle converged after 9 iterations

Using DM_out to compute the final energy and forces
No. of atoms with KB's overlaping orbs in proc 0. Max # of overlaps:       4      26

siesta: E_KS(eV) =             -898.3738

siesta: Atomic forces (eV/Ang):
----------------------------------------
   Tot   -0.007097    0.003743    0.004068
----------------------------------------
   Max    2.589140
   Res    1.288342    sqrt( Sum f_i^2 / 3N )
----------------------------------------
   Max    2.589140    constrained

Stress tensor Voigt[x,y,z,yz,xz,xy] (kbar):      -13.97       -0.75       -1.02       -0.73       -1.42       -1.09
(Free)E + p*V (eV/cell)     -895.1681
Target enthalpy (eV/cell)     -898.4431

siesta: Stress tensor (static) (eV/Ang**3):
        -0.001213   -0.000617   -0.000952
        -0.000617   -0.000236   -0.000361
        -0.000952   -0.000361   -0.000544

siesta: Pressure (static):          1.06431344  kBar

siesta: Stress tensor (total) (eV/Ang**3):
        -0.008719   -0.000680   -0.000889
        -0.000680   -0.000471   -0.000456
        -0.000889   -0.000456   -0.000635

siesta: Pressure (total):          5.24723871  kBar

siesta: Temp_ion =   10418.096 K

                     ====================================
                        Begin MD step =     12
                     ====================================

outcell: Unit cell vectors (Ang):
       10.000004    0.000000    0.000000
        0.000000   10.000004    0.000000
        0.000000    0.000000   10.000004

outcell: Cell vector modules (Ang)   :   10.000004   10.000004   10.000004
outcell: Cell angles (23,13,12) (deg):     90.0000     90.0000     90.0000
outcell: Cell volume (Ang**3)        :   1000.0012
<dSpData1D:S at geom step 12
  <sparsity:sparsity for geom step 12
    nrows_g=26 nrows=26 sparsity=1.0000 nnzs=676, refcount: 7>
  <dData1D:(new from dSpData1D) n=676, refcount: 1>
refcount: 1>
new_DM -- step:    12
Re-using DM from previous geometries...
Number of DMs in history: 1
 DM extrapolation coefficients: 
1   1.00000
New DM after history re-use:
<dSpData2D:SpM extrapolated using coords
  <sparsity:sparsity for geom step 12
    nrows_g=26 nrows=26 sparsity=1.0000 nnzs=676, refcount: 9>
  <dData2D:(temp array for extrapolation) n=676 m=1, refcount: 1>
refcount: 1>
Note: For starting DM, Qtot, Tr[D*S] =         14.00000000         13.96398982
No. of atoms with KB's overlaping orbs in proc 0. Max # of overlaps:       4      26

InitMesh: MESH = 90 x 90 x 90 = 729000
InitMesh: Mesh cutoff (required, used) =   200.000   223.865 Ry
New grid distribution [1]: sub = 2

        iscf     Eharris(eV)        E_KS(eV)     FreeEng(eV)     dDmax    Ef(eV) dHmax(eV)
   scf:    1     -898.180963     -898.477334     -898.546467  0.053964 -5.788587  0.741355
   scf:    2     -897.790155     -898.265008     -898.319399  0.363221 -6.355493  0.978800
   scf:    3     -898.560468     -898.461453     -898.529308  0.225698 -6.041247  0.489070
   scf:    4     -898.188723     -898.410233     -898.472662  0.320248 -6.267152  0.258211
   scf:    5     -898.377799     -898.394401     -898.455355  0.021436 -6.273874  0.284379
   scf:    6     -898.073045     -898.404161     -898.466732  0.454894 -6.273277  0.266475
   scf:    7     -898.506180     -898.482161     -898.551305  0.180840 -6.253875  0.047514
   scf:    8     -898.450815     -898.476600     -898.545094  0.110527 -6.255001  0.086008
   scf:    9     -898.474619     -898.483602     -898.552846  0.098285 -6.263979  0.032983
   scf:   10     -898.485292     -898.484694     -898.554005  0.017285 -6.264044  0.012101
   scf:   11     -898.484922     -898.484868     -898.554181  0.008517 -6.264463  0.001987
   scf:   12     -898.484867     -898.484868     -898.554181  0.000524 -6.265097  0.001858
   scf:   13     -898.484876     -898.484874     -898.554185  0.001563 -6.265216  0.001410
   scf:   14     -898.484874     -898.484874     -898.554186  0.000350 -6.265593  0.000428
   scf:   15     -898.484874     -898.484874     -898.554186  0.000031 -6.265633  0.000329

SCF Convergence by DM+H criterion
max |DM_out - DM_in|         :     0.0000308210
max |H_out - H_in|      (eV) :     0.0003287848
SCF cycle converged after 15 iterations

Using DM_out to compute the final energy and forces
No. of atoms with KB's overlaping orbs in proc 0. Max # of overlaps:       4      26

siesta: E_KS(eV) =             -898.4849

siesta: Atomic forces (eV/Ang):
----------------------------------------
   Tot   -0.002432    0.004293    0.000774
----------------------------------------
   Max    0.573990
   Res    0.235951    sqrt( Sum f_i^2 / 3N )
----------------------------------------
   Max    0.573990    constrained

Stress tensor Voigt[x,y,z,yz,xz,xy] (kbar):      -11.66       -0.47       -0.35       -0.30       -0.03       -0.15
(Free)E + p*V (eV/cell)     -895.9559
Target enthalpy (eV/cell)     -898.5542

siesta: Stress tensor (static) (eV/Ang**3):
         0.000177    0.000090    0.000106
         0.000090    0.000031    0.000045
         0.000106    0.000045    0.000077

siesta: Pressure (static):         -0.15225747  kBar

siesta: Stress tensor (total) (eV/Ang**3):
        -0.007280   -0.000094   -0.000016
        -0.000094   -0.000293   -0.000185
        -0.000016   -0.000185   -0.000221

siesta: Pressure (total):          4.16285738  kBar

siesta: Temp_ion =   10673.171 K

                     ====================================
                        Begin MD step =     13
                     ====================================

outcell: Unit cell vectors (Ang):
       10.000004    0.000000    0.000000
        0.000000   10.000004    0.000000
        0.000000    0.000000   10.000004

outcell: Cell vector modules (Ang)   :   10.000004   10.000004   10.000004
outcell: Cell angles (23,13,12) (deg):     90.0000     90.0000     90.0000
outcell: Cell volume (Ang**3)        :   1000.0012
<dSpData1D:S at geom step 13
  <sparsity:sparsity for geom step 13
    nrows_g=26 nrows=26 sparsity=1.0000 nnzs=676, refcount: 7>
  <dData1D:(new from dSpData1D) n=676, refcount: 1>
refcount: 1>
new_DM -- step:    13
Re-using DM from previous geometries...
Number of DMs in history: 1
 DM extrapolation coefficients: 
1   1.00000
New DM after history re-use:
<dSpData2D:SpM extrapolated using coords
  <sparsity:sparsity for geom step 13
    nrows_g=26 nrows=26 sparsity=1.0000 nnzs=676, refcount: 9>
  <dData2D:(temp array for extrapolation) n=676 m=1, refcount: 1>
refcount: 1>
Note: For starting DM, Qtot, Tr[D*S] =         14.00000000         13.95723430
No. of atoms with KB's overlaping orbs in proc 0. Max # of overlaps:       4      26

InitMesh: MESH = 90 x 90 x 90 = 729000
InitMesh: Mesh cutoff (required, used) =   200.000   223.865 Ry
New grid distribution [1]: sub = 2

        iscf     Eharris(eV)        E_KS(eV)     FreeEng(eV)     dDmax    Ef(eV) dHmax(eV)
   scf:    1     -897.743911     -898.260448     -898.328706  0.079438 -5.847342  0.862123
   scf:    2     -896.624183     -897.767467     -897.787835  0.630409 -6.578293  1.003720
   scf:    3     -898.377671     -898.123776     -898.180261  0.249100 -6.212176  0.466075
   scf:    4     -897.744542     -897.949834     -897.989458  0.141870 -6.238797  0.546674
   scf:    5     -897.081328     -898.057506     -898.104571  0.817962 -6.408690  0.450752
   scf:    6     -898.159106     -898.110047     -898.162560  0.046618 -6.373836  0.392776
   scf:    7     -896.851449     -897.957584     -897.997215  0.765079 -6.389505  0.539890
   scf:    8     -898.094229     -898.028019     -898.074960  0.051501 -6.387282  0.474541
   scf:    9     -898.357272     -898.232251     -898.297855  0.220268 -6.379843  0.204964
   scf:   10     -897.062430     -897.766515     -897.782469  0.387924 -6.390843  0.705166
   scf:   11     -898.296140     -898.061549     -898.111778  0.194218 -6.392254  0.441489
   scf:   12     -898.076093     -898.259042     -898.326054  0.480276 -6.392747  0.140837
   scf:   13     -898.173439     -898.259627     -898.327434  0.229130 -6.393025  0.135586
   scf:   14     -898.248984     -898.254445     -898.321842  0.013020 -6.393026  0.151304
   scf:   15     -898.289609     -898.279089     -898.348328  0.092624 -6.392985  0.039483
   scf:   16     -898.281662     -898.280717     -898.350031  0.020357 -6.392745  0.016663
   scf:   17     -898.279878     -898.280831     -898.350073  0.025392 -6.392921  0.017509
   scf:   18     -898.280577     -898.280971     -898.350283  0.017997 -6.393039  0.015041
   scf:   19     -898.280555     -898.280791     -898.350105  0.005847 -6.394385  0.013827
   scf:   20     -898.281006     -898.280916     -898.350229  0.003393 -6.395010  0.012764
   scf:   21     -898.281079     -898.281038     -898.350339  0.007056 -6.398441  0.009934
   scf:   22     -898.281043     -898.281042     -898.350342  0.001054 -6.398808  0.009590
   scf:   23     -898.281041     -898.281042     -898.350343  0.000125 -6.399291  0.009102
   scf:   24     -898.281046     -898.281045     -898.350345  0.000643 -6.404792  0.004018
   scf:   25     -898.281045     -898.281045     -898.350345  0.000066 -6.404989  0.003615
   scf:   26     -898.281048     -898.281047     -898.350346  0.000232 -6.405859  0.001294
   scf:   27     -898.281046     -898.281047     -898.350347  0.000331 -6.405856  0.001240
   scf:   28     -898.281047     -898.281047     -898.350347  0.000115 -6.405849  0.001119
   scf:   29     -898.281048     -898.281047     -898.350347  0.000225 -6.405949  0.000809

SCF Convergence by DM+H criterion
max |DM_out - DM_in|         :     0.0002253445
max |H_out - H_in|      (eV) :     0.0008085965
SCF cycle converged after 29 iterations

Using DM_out to compute the final energy and forces
No. of atoms with KB's overlaping orbs in proc 0. Max # of overlaps:       4      26

siesta: E_KS(eV) =             -898.2810

siesta: Atomic forces (eV/Ang):
----------------------------------------
   Tot   -0.000360    0.006250   -0.002057
----------------------------------------
   Max    1.964777
   Res    0.952784    sqrt( Sum f_i^2 / 3N )
----------------------------------------
   Max    1.964777    constrained

Stress tensor Voigt[x,y,z,yz,xz,xy] (kbar):      -11.35       -0.15        0.41        0.20        1.09        0.62
(Free)E + p*V (eV/cell)     -896.0442
Target enthalpy (eV/cell)     -898.3503

siesta: Stress tensor (static) (eV/Ang**3):
         0.000416    0.000652    0.000924
         0.000652    0.000279    0.000427
         0.000924    0.000427    0.000664

siesta: Pressure (static):         -0.72599113  kBar

siesta: Stress tensor (total) (eV/Ang**3):
        -0.007084    0.000388    0.000681
         0.000388   -0.000092    0.000126
         0.000681    0.000126    0.000258

siesta: Pressure (total):          3.69477443  kBar

siesta: Temp_ion =   10190.463 K

                     ====================================
                        Begin MD step =     14
                     ====================================

outcell: Unit cell vectors (Ang):
       10.000004    0.000000    0.000000
        0.000000   10.000004    0.000000
        0.000000    0.000000   10.000004

outcell: Cell vector modules (Ang)   :   10.000004   10.000004   10.000004
outcell: Cell angles (23,13,12) (deg):     90.0000     90.0000     90.0000
outcell: Cell volume (Ang**3)        :   1000.0012
<dSpData1D:S at geom step 14
  <sparsity:sparsity for geom step 14
    nrows_g=26 nrows=26 sparsity=1.0000 nnzs=676, refcount: 7>
  <dData1D:(new from dSpData1D) n=676, refcount: 1>
refcount: 1>
new_DM -- step:    14
Re-using DM from previous geometries...
Number of DMs in history: 1
 DM extrapolation coefficients: 
1   1.00000
New DM after history re-use:
<dSpData2D:SpM extrapolated using coords
  <sparsity:sparsity for geom step 14
    nrows_g=26 nrows=26 sparsity=1.0000 nnzs=676, refcount: 9>
  <dData2D:(temp array for extrapolation) n=676 m=1, refcount: 1>
refcount: 1>
Note: For starting DM, Qtot, Tr[D*S] =         14.00000000         13.97272242
No. of atoms with KB's overlaping orbs in proc 0. Max # of overlaps:       4      26

InitMesh: MESH = 90 x 90 x 90 = 729000
InitMesh: Mesh cutoff (required, used) =   200.000   223.865 Ry
New grid distribution [1]: sub = 2

        iscf     Eharris(eV)        E_KS(eV)     FreeEng(eV)     dDmax    Ef(eV) dHmax(eV)
   scf:    1     -897.307162     -897.938121     -898.004509  0.130115 -6.155449  0.758497
   scf:    2     -895.855824     -897.341341     -897.346359  0.738190 -6.788613  1.206543
   scf:    3     -898.012590     -897.721978     -897.770261  0.223743 -6.416324  0.476812
   scf:    4     -897.326814     -897.536822     -897.565546  0.126319 -6.480481  0.638611
   scf:    5     -896.424602     -897.688445     -897.726785  0.940332 -6.586893  0.516923
   scf:    6     -897.690145     -897.689368     -897.727800  0.003248 -6.549623  0.515237
   scf:    7     -897.004737     -897.800200     -897.855502  0.745559 -6.555925  0.393253
   scf:    8     -897.773572     -897.787004     -897.841107  0.012144 -6.556855  0.408175
   scf:    9     -897.385663     -897.871409     -897.929694  0.591423 -6.553292  0.306785
   scf:   10     -897.946131     -897.973956     -898.043258  0.282281 -6.558526  0.034482
   scf:   11     -897.975868     -897.975131     -898.044438  0.016306 -6.558624  0.020423
   scf:   12     -897.974830     -897.974987     -898.044299  0.002854 -6.559864  0.021741
   scf:   13     -897.973986     -897.974527     -898.043840  0.006991 -6.558908  0.026696
   scf:   14     -897.968318     -897.973868     -898.042799  0.054631 -6.561311  0.039109
   scf:   15     -897.975959     -897.975200     -898.044358  0.018652 -6.568130  0.016586
   scf:   16     -897.975336     -897.975442     -898.044708  0.014623 -6.577852  0.003789
   scf:   17     -897.975453     -897.975448     -898.044708  0.000924 -6.575388  0.000604
   scf:   18     -897.975448     -897.975448     -898.044709  0.000054 -6.575364  0.000575

SCF Convergence by DM+H criterion
max |DM_out - DM_in|         :     0.0000544828
max |H_out - H_in|      (eV) :     0.0005754145
SCF cycle converged after 18 iterations

Using DM_out to compute the final energy and forces
No. of atoms with KB's overlaping orbs in proc 0. Max # of overlaps:       4      26

siesta: E_KS(eV) =             -897.9754

siesta: Atomic forces (eV/Ang):
----------------------------------------
   Tot    0.001766    0.006017   -0.004897
----------------------------------------
   Max    2.744070
   Res    1.269523    sqrt( Sum f_i^2 / 3N )
----------------------------------------
   Max    2.744070    constrained

Stress tensor Voigt[x,y,z,yz,xz,xy] (kbar):      -12.54        0.14        1.12        0.66        1.91        1.23
(Free)E + p*V (eV/cell)     -895.6982
Target enthalpy (eV/cell)     -898.0447

siesta: Stress tensor (static) (eV/Ang**3):
        -0.000541    0.000971    0.001339
         0.000971    0.000409    0.000638
         0.001339    0.000638    0.000996

siesta: Pressure (static):         -0.46131439  kBar

siesta: Stress tensor (total) (eV/Ang**3):
        -0.007824    0.000770    0.001194
         0.000770    0.000085    0.000409
         0.001194    0.000409    0.000700

siesta: Pressure (total):          3.75951630  kBar

siesta: Temp_ion =    9419.874 K

                     ====================================
                        Begin MD step =     15
                     ====================================

outcell: Unit cell vectors (Ang):
       10.000004    0.000000    0.000000
        0.000000   10.000004    0.000000
        0.000000    0.000000   10.000004

outcell: Cell vector modules (Ang)   :   10.000004   10.000004   10.000004
outcell: Cell angles (23,13,12) (deg):     90.0000     90.0000     90.0000
outcell: Cell volume (Ang**3)        :   1000.0012
<dSpData1D:S at geom step 15
  <sparsity:sparsity for geom step 15
    nrows_g=26 nrows=26 sparsity=1.0000 nnzs=676, refcount: 7>
  <dData1D:(new from dSpData1D) n=676, refcount: 1>
refcount: 1>
new_DM -- step:    15
Re-using DM from previous geometries...
Number of DMs in history: 1
 DM extrapolation coefficients: 
1   1.00000
New DM after history re-use:
<dSpData2D:SpM extrapolated using coords
  <sparsity:sparsity for geom step 15
    nrows_g=26 nrows=26 sparsity=1.0000 nnzs=676, refcount: 9>
  <dData2D:(temp array for extrapolation) n=676 m=1, refcount: 1>
refcount: 1>
No. of atoms with KB's overlaping orbs in proc 0. Max # of overlaps:       4      26

InitMesh: MESH = 90 x 90 x 90 = 729000
InitMesh: Mesh cutoff (required, used) =   200.000   223.865 Ry
New grid distribution [1]: sub = 2

        iscf     Eharris(eV)        E_KS(eV)     FreeEng(eV)     dDmax    Ef(eV) dHmax(eV)
   scf:    1     -897.018589     -897.652909     -897.717814  0.148966 -6.568669  0.490778
   scf:    2     -895.391378     -897.013955     -897.016718  0.755689 -6.905062  1.401797
   scf:    3     -897.880580     -897.547205     -897.606328  0.329116 -6.661747  0.348951
   scf:    4     -897.288296     -897.426765     -897.475284  0.103765 -6.683187  0.475398
   scf:    5     -897.700761     -897.691861     -897.761059  0.389940 -6.742413  0.096675
   scf:    6     -897.225305     -897.538235     -897.589715  0.306058 -6.728989  0.368036
   scf:    7     -897.528072     -897.533174     -897.584085  0.004957 -6.728455  0.374137
   scf:    8     -896.034208     -897.302110     -897.337828  0.784595 -6.739241  0.581749
   scf:    9     -897.684488     -897.692525     -897.761618  0.483583 -6.731394  0.019803
   scf:   10     -897.570349     -897.650886     -897.714718  0.151548 -6.728349  0.191880
   scf:   11     -897.629765     -897.684155     -897.753267  0.226285 -6.731687  0.080598
   scf:   12     -897.693452     -897.692565     -897.761749  0.066207 -6.731462  0.012850
   scf:   13     -897.681701     -897.688751     -897.758037  0.043681 -6.732270  0.053505
   scf:   14     -897.692140     -897.690595     -897.759909  0.013085 -6.732533  0.037770
   scf:   15     -897.692123     -897.692569     -897.761680  0.036798 -6.732661  0.016163
   scf:   16     -897.692552     -897.692588     -897.761754  0.004696 -6.736346  0.006536
   scf:   17     -897.692581     -897.692585     -897.761754  0.000462 -6.736119  0.006323
   scf:   18     -897.692580     -897.692582     -897.761755  0.000486 -6.736442  0.006293
   scf:   19     -897.692582     -897.692582     -897.761756  0.000446 -6.736922  0.005906
   scf:   20     -897.692576     -897.692581     -897.761754  0.001281 -6.738044  0.004046
   scf:   21     -897.692580     -897.692580     -897.761755  0.000097 -6.738444  0.003506
   scf:   22     -897.692586     -897.692585     -897.761759  0.001354 -6.740149  0.001171
   scf:   23     -897.692586     -897.692585     -897.761759  0.000047 -6.740193  0.001112
   scf:   24     -897.692588     -897.692587     -897.761759  0.000189 -6.740485  0.000768

SCF Convergence by DM+H criterion
max |DM_out - DM_in|         :     0.0001894894
max |H_out - H_in|      (eV) :     0.0007675966
SCF cycle converged after 24 iterations

Using DM_out to compute the final energy and forces
No. of atoms with KB's overlaping orbs in proc 0. Max # of overlaps:       4      26

siesta: E_KS(eV) =             -897.6926

siesta: Atomic forces (eV/Ang):
----------------------------------------
   Tot   -0.000630    0.004160   -0.007616
----------------------------------------
   Max    3.161510
   Res    1.363030    sqrt( Sum f_i^2 / 3N )
----------------------------------------
   Max    3.161510    constrained

Stress tensor Voigt[x,y,z,yz,xz,xy] (kbar):      -15.14        0.25        1.48        0.87        2.23        1.56
(Free)E + p*V (eV/cell)     -894.9704
Target enthalpy (eV/cell)     -897.7618

siesta: Stress tensor (static) (eV/Ang**3):
        -0.002522    0.001101    0.001418
         0.001101    0.000407    0.000660
         0.001418    0.000660    0.001046

siesta: Pressure (static):          0.57061732  kBar

siesta: Stress tensor (total) (eV/Ang**3):
        -0.009451    0.000975    0.001392
         0.000975    0.000155    0.000542
         0.001392    0.000542    0.000923

siesta: Pressure (total):          4.47227458  kBar

siesta: Temp_ion =    8680.991 K

                     ====================================
                        Begin MD step =     16
                     ====================================

outcell: Unit cell vectors (Ang):
       10.000004    0.000000    0.000000
        0.000000   10.000004    0.000000
        0.000000    0.000000   10.000004

outcell: Cell vector modules (Ang)   :   10.000004   10.000004   10.000004
outcell: Cell angles (23,13,12) (deg):     90.0000     90.0000     90.0000
outcell: Cell volume (Ang**3)        :   1000.0012
<dSpData1D:S at geom step 16
  <sparsity:sparsity for geom step 16
    nrows_g=26 nrows=26 sparsity=1.0000 nnzs=676, refcount: 7>
  <dData1D:(new from dSpData1D) n=676, refcount: 1>
refcount: 1>
new_DM -- step:    16
[...]
   scf:   37     -897.735193     -897.735194     -897.804506  0.000229 -5.805625  0.001584
   scf:   38     -897.735193     -897.735193     -897.804506  0.000109 -5.805538  0.001507
   scf:   39     -897.735193     -897.735193     -897.804506  0.000084 -5.805487  0.001287
   scf:   40     -897.735193     -897.735193     -897.804506  0.000046 -5.805728  0.000860

SCF Convergence by DM+H criterion
max |DM_out - DM_in|         :     0.0000457724
max |H_out - H_in|      (eV) :     0.0008604685
SCF cycle converged after 40 iterations

Using DM_out to compute the final energy and forces
No. of atoms with KB's overlaping orbs in proc 0. Max # of overlaps:       4      26

siesta: E_KS(eV) =             -897.7352

siesta: Atomic forces (eV/Ang):
----------------------------------------
   Tot   -0.005247   -0.007679   -0.001297
----------------------------------------
   Max    2.649224
   Res    1.590204    sqrt( Sum f_i^2 / 3N )
----------------------------------------
   Max    2.649224    constrained

Stress tensor Voigt[x,y,z,yz,xz,xy] (kbar):        1.38       -5.63        0.41       -2.18       -1.50        1.66
(Free)E + p*V (eV/cell)     -897.0075
Target enthalpy (eV/cell)     -897.8045

siesta: Stress tensor (static) (eV/Ang**3):
         0.001652    0.000696   -0.001500
         0.000696    0.000230   -0.001078
        -0.001500   -0.001078    0.001307

siesta: Pressure (static):         -1.70311351  kBar

siesta: Stress tensor (total) (eV/Ang**3):
         0.000863    0.001035   -0.000939
         0.001035   -0.003511   -0.001362
        -0.000939   -0.001362    0.000257

siesta: Pressure (total):          1.27691981  kBar

siesta: Temp_ion =    8912.797 K

                     ====================================
                        Begin MD step =    199
                     ====================================

outcell: Unit cell vectors (Ang):
       10.000004    0.000000    0.000000
        0.000000   10.000004    0.000000
        0.000000    0.000000   10.000004

outcell: Cell vector modules (Ang)   :   10.000004   10.000004   10.000004
outcell: Cell angles (23,13,12) (deg):     90.0000     90.0000     90.0000
outcell: Cell volume (Ang**3)        :   1000.0012
<dSpData1D:S at geom step 199
  <sparsity:sparsity for geom step 199
    nrows_g=26 nrows=26 sparsity=1.0000 nnzs=676, refcount: 7>
  <dData1D:(new from dSpData1D) n=676, refcount: 1>
refcount: 1>
new_DM -- step:   199
Re-using DM from previous geometries...
Number of DMs in history: 1
 DM extrapolation coefficients: 
1   1.00000
New DM after history re-use:
<dSpData2D:SpM extrapolated using coords
  <sparsity:sparsity for geom step 199
    nrows_g=26 nrows=26 sparsity=1.0000 nnzs=676, refcount: 9>
  <dData2D:(temp array for extrapolation) n=676 m=1, refcount: 1>
refcount: 1>
Note: For starting DM, Qtot, Tr[D*S] =         14.00000000         14.14676068
No. of atoms with KB's overlaping orbs in proc 0. Max # of overlaps:       4      26

InitMesh: MESH = 90 x 90 x 90 = 729000
InitMesh: Mesh cutoff (required, used) =   200.000   223.865 Ry
New grid distribution [1]: sub = 2

        iscf     Eharris(eV)        E_KS(eV)     FreeEng(eV)     dDmax    Ef(eV) dHmax(eV)
   scf:    1     -899.096754     -898.371268     -898.439711  0.060741 -7.244319  1.902514
   scf:    2     -896.452915     -897.805336     -897.821858  0.474126 -5.669641  1.600020
   scf:    3     -898.382061     -898.123783     -898.167654  0.117580 -6.249806  1.001267
   scf:    4     -898.422817     -898.290293     -898.349426  0.106779 -6.264667  0.860218
   scf:    5     -897.182585     -898.122408     -898.164467  0.496308 -5.989625  0.374069
   scf:    6     -898.145023     -898.133774     -898.177034  0.006147 -5.973365  0.366349
   scf:    7     -897.134342     -898.165174     -898.210179  0.581199 -5.876708  0.345867
   scf:    8     -898.484531     -898.408913     -898.477392  0.231043 -5.919815  0.071249
   scf:    9     -896.977375     -897.888181     -897.897955  0.357628 -5.855038  0.531863
   scf:   10     -897.776087     -897.833014     -897.833273  0.018801 -5.733032  0.640028
   scf:   11     -897.828971     -897.831126     -897.831269  0.004316 -5.640603  0.652315
   scf:   12     -898.592146     -898.317345     -898.377547  0.245085 -5.486881  0.393055
   scf:   13     -897.176958     -897.846865     -897.848787  0.242256 -5.869350  0.587787
   scf:   14     -897.741743     -897.794666     -897.794666  0.008263 -5.865429  0.836826
   scf:   15     -898.211298     -898.012982     -898.040449  0.069152 -5.908200  0.444403
   scf:   16     -898.551074     -898.374418     -898.439747  0.245647 -5.928941  0.136852
   scf:   17     -897.004742     -897.837798     -897.838474  0.313234 -5.892936  0.617336
   scf:   18     -897.820202     -897.829025     -897.829134  0.003836 -5.863769  0.662693
   scf:   19     -897.823514     -897.826272     -897.826331  0.000753 -5.868968  0.677420
   scf:   20     -897.860503     -897.843449     -897.844872  0.004626 -5.882205  0.596454
   scf:   21     -895.451315     -897.806231     -897.806323  0.857548 -5.879510  0.676249
   scf:   22     -897.794212     -897.800301     -897.800327  0.007230 -5.791287  0.706733
   scf:   23     -896.784925     -898.142149     -898.184634  0.729683 -5.809583  0.360084
   scf:   24     -898.005327     -898.075506     -898.110526  0.033017 -5.824026  0.403665
   scf:   25     -897.876848     -897.979087     -898.002044  0.044837 -5.802703  0.465784
   scf:   26     -896.429380     -898.025742     -898.056968  0.726567 -5.793382  0.439819
   scf:   27     -898.511492     -898.314579     -898.375183  0.171300 -5.814143  0.223150
   scf:   28     -897.537351     -898.218437     -898.268872  0.433353 -5.781255  0.304467
   scf:   29     -898.406210     -898.321492     -898.381904  0.076700 -5.784336  0.210232
   scf:   30     -898.076214     -898.209358     -898.258872  0.083030 -5.774759  0.312026
   scf:   31     -898.397007     -898.311619     -898.371104  0.073767 -5.782501  0.220872
   scf:   32     -898.443779     -898.390624     -898.457383  0.090927 -5.771853  0.136897
   scf:   33     -898.342250     -898.368130     -898.432838  0.032504 -5.801917  0.150467
   scf:   34     -898.382047     -898.414513     -898.483594  0.159187 -5.883757  0.040841
   scf:   35     -898.258234     -898.372813     -898.437943  0.153513 -5.836357  0.143949
   scf:   36     -898.429183     -898.416833     -898.485998  0.100652 -5.866629  0.024004
   scf:   37     -898.418115     -898.418054     -898.487362  0.019016 -5.873539  0.007803
   scf:   38     -898.418043     -898.418071     -898.487374  0.003630 -5.868089  0.008059
   scf:   39     -898.418082     -898.418091     -898.487402  0.003040 -5.873484  0.001686
   scf:   40     -898.418089     -898.418090     -898.487402  0.000276 -5.873929  0.001604
   scf:   41     -898.418093     -898.418092     -898.487403  0.000726 -5.873771  0.001224
   scf:   42     -898.418090     -898.418091     -898.487402  0.000361 -5.874212  0.001349
   scf:   43     -898.418091     -898.418091     -898.487402  0.000087 -5.873914  0.001016
   scf:   44     -898.418092     -898.418092     -898.487403  0.000483 -5.874440  0.000332
   scf:   45     -898.418092     -898.418092     -898.487403  0.000012 -5.874454  0.000288

SCF Convergence by DM+H criterion
max |DM_out - DM_in|         :     0.0000121176
max |H_out - H_in|      (eV) :     0.0002880016
SCF cycle converged after 45 iterations

Using DM_out to compute the final energy and forces
No. of atoms with KB's overlaping orbs in proc 0. Max # of overlaps:       4      26

siesta: E_KS(eV) =             -898.4181

siesta: Atomic forces (eV/Ang):
----------------------------------------
   Tot   -0.004869   -0.008865   -0.000165
----------------------------------------
   Max    1.118506
   Res    0.668097    sqrt( Sum f_i^2 / 3N )
----------------------------------------
   Max    1.118506    constrained

Stress tensor Voigt[x,y,z,yz,xz,xy] (kbar):       -1.14       -5.86       -2.19       -0.59        1.42        0.65
(Free)E + p*V (eV/cell)     -896.5740
Target enthalpy (eV/cell)     -898.4874

siesta: Stress tensor (static) (eV/Ang**3):
         0.000645    0.000269   -0.000354
         0.000269    0.000151   -0.000371
        -0.000354   -0.000371    0.000376

siesta: Pressure (static):         -0.62596858  kBar

siesta: Stress tensor (total) (eV/Ang**3):
        -0.000714    0.000406    0.000888
         0.000406   -0.003659   -0.000368
         0.000888   -0.000368   -0.001367

siesta: Pressure (total):          3.06566043  kBar

siesta: Temp_ion =   10464.356 K

                     ====================================
                        Begin MD step =    200
                     ====================================

outcell: Unit cell vectors (Ang):
       10.000004    0.000000    0.000000
        0.000000   10.000004    0.000000
        0.000000    0.000000   10.000004

outcell: Cell vector modules (Ang)   :   10.000004   10.000004   10.000004
outcell: Cell angles (23,13,12) (deg):     90.0000     90.0000     90.0000
outcell: Cell volume (Ang**3)        :   1000.0012
<dSpData1D:S at geom step 200
  <sparsity:sparsity for geom step 200
    nrows_g=26 nrows=26 sparsity=1.0000 nnzs=676, refcount: 7>
  <dData1D:(new from dSpData1D) n=676, refcount: 1>
refcount: 1>
new_DM -- step:   200
Re-using DM from previous geometries...
Number of DMs in history: 1
 DM extrapolation coefficients: 
1   1.00000
New DM after history re-use:
<dSpData2D:SpM extrapolated using coords
  <sparsity:sparsity for geom step 200
    nrows_g=26 nrows=26 sparsity=1.0000 nnzs=676, refcount: 9>
  <dData2D:(temp array for extrapolation) n=676 m=1, refcount: 1>
refcount: 1>
Note: For starting DM, Qtot, Tr[D*S] =         14.00000000         14.12644496
No. of atoms with KB's overlaping orbs in proc 0. Max # of overlaps:       4      26

InitMesh: MESH = 90 x 90 x 90 = 729000
InitMesh: Mesh cutoff (required, used) =   200.000   223.865 Ry
New grid distribution [1]: sub = 2

        iscf     Eharris(eV)        E_KS(eV)     FreeEng(eV)     dDmax    Ef(eV) dHmax(eV)
   scf:    1     -898.549383     -897.960901     -898.029936  0.055878 -7.140992  1.604649
   scf:    2     -896.664162     -897.568787     -897.605753  0.388206 -5.810546  1.253222
   scf:    3     -898.055102     -897.847893     -897.906455  0.146583 -6.289616  0.882460
   scf:    4     -896.974710     -897.755125     -897.804010  0.483236 -6.107855  0.340889
   scf:    5     -897.821390     -897.789015     -897.841195  0.022273 -6.021412  0.314492
   scf:    6     -895.807574     -897.462518     -897.472501  0.682747 -5.973051  0.550636
   scf:    7     -897.454813     -897.458669     -897.467994  0.001480 -5.955748  0.554139
   scf:    8     -897.629576     -897.546145     -897.568645  0.037441 -5.925129  0.486506
   scf:    9     -897.943802     -897.984805     -898.054083  0.405723 -5.923565  0.023026
   scf:   10     -897.440565     -897.811581     -897.864379  0.261424 -5.932824  0.296068
   scf:   11     -898.012961     -897.927753     -897.991631  0.103472 -5.923760  0.169549
   scf:   12     -897.976363     -897.985388     -898.054697  0.150783 -5.929119  0.013548
   scf:   13     -897.959967     -897.978133     -898.046659  0.061030 -5.935063  0.061717
   scf:   14     -897.988220     -897.984936     -898.054137  0.034617 -5.942841  0.020426
   scf:   15     -897.985891     -897.985682     -898.054981  0.013550 -5.941062  0.004001
   scf:   16     -897.985701     -897.985692     -898.054995  0.000804 -5.941748  0.003070
   scf:   17     -897.985703     -897.985699     -898.055003  0.000739 -5.942522  0.002194
   scf:   18     -897.985691     -897.985700     -898.055010  0.001944 -5.944310  0.001306
   scf:   19     -897.985702     -897.985701     -898.055011  0.000206 -5.943916  0.001133
   scf:   20     -897.985701     -897.985701     -898.055011  0.000321 -5.943851  0.000977
   scf:   21     -897.985702     -897.985702     -898.055011  0.000047 -5.943912  0.000913

SCF Convergence by DM+H criterion
max |DM_out - DM_in|         :     0.0000469528
max |H_out - H_in|      (eV) :     0.0009125315
SCF cycle converged after 21 iterations

Using DM_out to compute the final energy and forces
No. of atoms with KB's overlaping orbs in proc 0. Max # of overlaps:       4      26

siesta: E_KS(eV) =             -897.9857

siesta: Atomic forces (eV/Ang):
----------------------------------------
   Tot   -0.008867    0.001448   -0.000950
----------------------------------------
   Max    4.935319
   Res    2.853621    sqrt( Sum f_i^2 / 3N )
----------------------------------------
   Max    4.935319    constrained

Stress tensor Voigt[x,y,z,yz,xz,xy] (kbar):       -6.31       -9.28       -4.19        1.94        4.64       -3.48
(Free)E + p*V (eV/cell)     -893.9405
Target enthalpy (eV/cell)     -898.0550

siesta: Stress tensor (static) (eV/Ang**3):
        -0.002024   -0.002048    0.001082
        -0.002048   -0.001862    0.000900
         0.001082    0.000900   -0.000341

siesta: Pressure (static):          2.25782682  kBar

siesta: Stress tensor (total) (eV/Ang**3):
        -0.003940   -0.002174    0.002899
        -0.002174   -0.005791    0.001208
         0.002899    0.001208   -0.002613

siesta: Pressure (total):          6.59210222  kBar

siesta: Temp_ion =    9251.558 K

coxmol: Writing XMOL coordinates into file xoc.xyz                                                                                                                                                                                                                             

siesta: Program's energy decomposition (eV):
siesta: Ebs     =      -204.785155
siesta: Eions   =      1581.702395
siesta: Ena     =       338.951727
siesta: Ekin    =       624.722812
siesta: Enl     =       -89.118181
siesta: Eso     =         0.000000
siesta: Edftu   =         0.000000
siesta: DEna    =        12.886532
siesta: DUscf   =         0.981458
siesta: DUext   =         0.000000
siesta: Ex      =      -190.854769
siesta: Ec      =       -13.852886
siesta: Exc     =      -204.707654
siesta: EbV     =         0.000000
siesta: eta*DQ  =         0.000000
siesta: Emadel  =         0.000000
siesta: Emeta   =         0.000000
siesta: Emolmec =         0.000000
siesta: Ekinion =         3.587569
siesta: Eharris =      -894.398133
siesta: Etot    =      -894.398133
siesta: FreeEng =      -894.467442

siesta: Final energy (eV):
siesta:  Band Struct. =    -204.785155
siesta:       Kinetic =     624.722812
siesta:       Hartree =     879.479460
siesta:         Edftu =       0.000000
siesta:       Eso     =       0.000000
siesta:    Ext. field =       0.000000
siesta:         Exch. =    -190.854769
siesta:         Corr. =     -13.852886
siesta:     Bulk bias =       0.000000
siesta:   Exch.-corr. =    -204.707654
siesta:  Ion-electron =   -2327.518406
siesta:       Ion-ion =     130.038087
siesta:       Ekinion =       3.587569
siesta: D3 dispersion =       0.000000
siesta:         Total =    -894.398133
siesta:         Fermi =      -5.943912

siesta: Atomic forces (eV/Ang):
siesta:      1   -0.190112   -0.204421    0.007413
siesta:      2    0.116050    0.216324   -0.052783
siesta:      3    4.935319    4.548527   -1.981151
siesta:      4   -4.870125   -4.558982    2.025572
siesta: ----------------------------------------
siesta:    Tot   -0.008867    0.001448   -0.000950

siesta: Stress tensor (static) (eV/Ang**3):
siesta:    -0.002024   -0.002048    0.001082
siesta:    -0.002048   -0.001862    0.000900
siesta:     0.001082    0.000900   -0.000341

siesta: Cell volume =       1000.001196 Ang**3

siesta: Pressure (static):
siesta:                Solid            Molecule  Units
siesta:           0.00001535         -0.00000333  Ry/Bohr**3
siesta:           0.00140922         -0.00030618  eV/Ang**3
siesta:           2.25782682         -0.49055919  kBar
(Free)E+ p_basis*V_orbitals  =        -897.296302
(Free)Eharris+ p_basis*V_orbitals  =        -897.296302

siesta: Electric dipole (a.u.)  =   -0.073573   -0.036787    0.013279
siesta: Electric dipole (Debye) =   -0.187005   -0.093502    0.033753

cite: Please see "xoc.bib" for an exhaustive BiBTeX file.
cite: Please clearly indicate Siesta version in published work: 5.2.1
cite: This calculation has made use of the following articles
cite: which are encouraged to be cited in a published work.
        Primary SIESTA paper
          DOI: www.doi.org/10.1088/0953-8984/14/11/302


timer: Elapsed wall time (sec) =     539.166
timer: CPU execution times (sec):

Routine            Calls   Time/call    Tot.time        %
siesta                 1    2352.297    2352.297   100.00
Setup                  1       1.085       1.085     0.05
bands                  1       0.000       0.000     0.00
KSV_init               1       0.000       0.000     0.00
IterGeom             200      11.756    2351.211    99.95
geom_init            200       0.201      40.239     1.71
state_init           200       0.001       0.134     0.01
hsparse              200       0.000       0.007     0.00
overlap              200       0.000       0.087     0.00
Setup_H0             200       0.091      18.212     0.77
naefs                400       0.000       0.007     0.00
dnaefs               400       0.000       0.004     0.00
MolMec               400       0.000       0.000     0.00
kinefsm              400       0.000       0.116     0.00
nlefsm               400       0.002       0.625     0.03
DHSCF_Init           200       0.088      17.594     0.75
DHSCF1               200       0.008       1.589     0.07
InitMesh             200       0.008       1.587     0.07
INITMESH             200       0.000       0.000     0.00
DHSCF2               200       0.080      16.004     0.68
REMESH               200       0.003       0.621     0.03
REORD              11884       0.002      23.005     0.98
PHION                200       0.039       7.706     0.33
COMM_BSC           18368       0.002      29.572     1.26
POISON              4642       0.147     683.421    29.05
fft                 9284       0.053     488.502    20.77
setup_H             4242       0.540    2292.194    97.44
DHSCF               4442       0.523    2324.151    98.80
DHSCF3              4442       0.520    2310.710    98.23
rhoofd              4442       0.031     136.887     5.82
XC                  4442       0.287    1275.126    54.21
GXC-CellXC          4442       0.275    1220.381    51.88
gridxc@cellXC       4442       0.275    1220.290    51.88
vmat                4442       0.004      17.006     0.72
IterSCF             4042       0.563    2275.413    96.73
compute_dm          4042       0.001       4.551     0.19
diagon              4042       0.001       4.495     0.19
r-eigvec            4042       0.001       3.905     0.17
r-buildHS           4042       0.000       0.009     0.00
rdiag               4042       0.001       3.878     0.16
rdiag1              4042       0.000       0.017     0.00
rdiag2              4042       0.000       0.051     0.00
rdiag3              4042       0.001       3.600     0.15
rdiag4              4042       0.000       0.153     0.01
r-buildD            4042       0.000       0.379     0.02
MIXER               3842       0.000       0.105     0.00
PostSCF              200       0.177      35.436     1.51
FINAL_HF             200       0.177      35.433     1.51
DHSCF4               200       0.067      13.428     0.57
dfscf                200       0.050       9.938     0.42
overfsm              200       0.000       0.031     0.00
writeHSX             200       0.000       0.018     0.00
state_analysis       200       0.000       0.022     0.00
siesta_move          200       0.000       0.048     0.00
Analysis               1       0.000       0.000     0.00
optical                1       0.000       0.000     0.00
  

>> End of run:  24-MAR-2025  17:42:16
Job completed
Job completed
