Executable      : siesta
Version         : 5.2.1
Architecture    : x86_64
Compiler version: GNU-13.3.0
Compiler flags  : -march=nocona -mtune=haswell -ftree-vectorize -fPIC -fstack-protector-strong -fno-plt -O2 -ffunction-sections -pipe -isystem <prefix>/include -I<prefix>/_build_env/include -fdebug-prefix-map=<prefix>/work=/usr/local/src/conda/siesta-5.2.1 -fdebug-prefix-map=<prefix>=/usr/local/src/conda-prefix -I<prefix>/lib -fallow-argument-mismatch -O3
Parallelisations: none
NetCDF support
NetCDF-4 support
Lua support
DFT-D3 support

Runtime information:
* Directory : /home/samba/homes/convidat/Desktop/Simulacions/0.37
* Running in serial mode.
>> Start of run:  25-MAR-2025  17:09:46

                           *********************** 
                           *  WELCOME TO SIESTA  * 
                           *********************** 

 NOTE: Siesta V5 introduces some new defaults for basis-set generation
 NOTE: which might lead to slightly different numerical results.
 NOTE: Please see the manual for full details and compatibility measures.


reinit: Reading from file xoc.fdf

reinit: -----------------------------------------------------------------------
reinit: System Name: H2 + O2 -> H2O2 reaction
reinit: -----------------------------------------------------------------------
reinit: System Label: xoc
reinit: -----------------------------------------------------------------------

initatom: Reading input for the pseudopotentials and atomic orbitals ----------
Species number:   1 Atomic number:    8 Label: O
Species number:   2 Atomic number:    1 Label: H

Ground state valence configuration (from tables):   2s02  2p04  3d00  4f00
Ground state valence configuration (from tables):   1s01  2p00  3d00  4f00

---- Processing specs for species: O
Reading pseudopotential information in formatted form from:
  O.psf

---- Processing specs for species: H
Reading pseudopotential information in unformatted form from:
  H.vps

---- Pseudopotential check for O 

Pseudopotential generated from a fully relativistic atomic calculation
There are spin-orbit semi-local pseudopotentials available

Pseudized shells:
2s( 2.00) rc: 1.14
2p( 4.00) rc: 1.14
3d( 0.00) rc: 1.14
4f( 0.00) rc: 1.14
Valence configuration for ps generation: (assumed as above)

---- Pseudopotential check for H 

Pseudized shells:
1s( 1.00) rc: 1.25
2p( 0.00) rc: 1.25
3d( 0.00) rc: 1.25
4f( 0.00) rc: 1.25
Valence configuration for ps generation: (assumed as above)
For O, standard SIESTA heuristics set lmxkb to 3
 (one more than the basis l, including polarization orbitals).
Use PS.lmax or PS.KBprojectors blocks to override.
For H, standard SIESTA heuristics set lmxkb to 2
 (one more than the basis l, including polarization orbitals).
Use PS.lmax or PS.KBprojectors blocks to override.

<basis_specs>
===============================================================================
O                    Z=   8    Mass=  15.999        Charge= 0.17977+309
Lmxo=2 Lmxkb= 3    BasisType=split      Semic=F
L=0  Nsemic=0  Cnfigmx=2
          i=1  nzeta=1  polorb=0  (2s)
            splnorm:   0.15000    
               vcte:    40.000    
               rinn:  -0.90000    
               qcoe:    0.0000    
               qyuk:    0.0000    
               qwid:   0.10000E-01
                rcs:    0.0000    
            lambdas:    1.0000    
L=1  Nsemic=0  Cnfigmx=2
          i=1  nzeta=1  polorb=1  (2p)  (to be polarized perturbatively)
            splnorm:   0.15000    
               vcte:    40.000    
               rinn:  -0.90000    
               qcoe:    0.0000    
               qyuk:    0.0000    
               qwid:   0.10000E-01
                rcs:    0.0000    
            lambdas:    1.0000    
L=2  Nsemic=0  Cnfigmx=3
          i=1  nzeta=0  polorb=0  (3d)  (perturbative polarization orbital) (from 2p)
-------------------------------------------------------------------------------
L=0  Nkbl=1  erefs: 0.17977+309
L=1  Nkbl=1  erefs: 0.17977+309
L=2  Nkbl=1  erefs: 0.17977+309
L=3  Nkbl=1  erefs: 0.17977+309
===============================================================================
</basis_specs>

Using PAO.SplitTailNorm
atom: Called for O                     (Z =   8)
Maximum radius (at nrval) set to   50.00000 8518

read_vps: Pseudopotential generation method:
read_vps: ATM3      Troullier-Martins                       
Valence charge in pseudo generation:    6.00000

read_vps: Pseudopotential includes a core correction:
read_vps: Pseudo-core for xc-correction

xc_check: Exchange-correlation functional:
xc_check: GGA Perdew, Burke & Ernzerhof 1996
V l=0 = -2*Zval/r beyond r=  1.1355
V l=1 = -2*Zval/r beyond r=  1.1355
V l=2 = -2*Zval/r beyond r=  1.1309
V l=3 = -2*Zval/r beyond r=  1.1286
All V_l potentials equal beyond r=  1.1355
This should be close to max(r_c) in ps generation
All pots = -2*Zval/r beyond r=  1.1355
Using small-core scheme (local charge) for Vlocal

VLOCAL_FROM_CHLOCAL: 99.0% of the norm of Vloc inside     33.667 Ry
VLOCAL_FROM_CHLOCAL: 99.9% of the norm of Vloc inside     76.727 Ry
atom: Maximum radius for chlocal:    1.37241
atom: Maximum radius for r*vlocal+2*Zval:    1.25469

KBgen: Kleinman-Bylander projectors: 
GHOST: No ghost state for L =  0
   l= 0   rc=  1.357289   el= -1.759790   Ekb=  9.151830   kbcos=  0.327271
GHOST: No ghost state for L =  1
   l= 1   rc=  1.345038   el= -0.663797   Ekb= -7.991133   kbcos= -0.393963
GHOST: No ghost state for L =  2
   l= 2   rc=  1.779310   el=  0.012956   Ekb= -1.983219   kbcos= -0.003702
GHOST: No ghost state for L =  3
   l= 3   rc=  2.085579   el=  0.019231   Ekb= -0.873623   kbcos= -0.000360

KBgen: Total number of Kleinman-Bylander projectors:  16
atom: -------------------------------------------------------------------------

atom: SANKEY-TYPE ORBITALS:

SPLIT: Orbitals with angular momentum L= 0

SPLIT: Basis orbitals for state 2s

SPLIT: PAO cut-off radius determined from an
SPLIT: energy shift=  0.010000 Ry
Split based on tail norm

   izeta = 1
                 lambda =    1.000000
                     rc =    3.532490
                 energy =   -1.748682
                kinetic =    1.612754
    potential(screened) =   -3.361436
       potential(ionic) =  -11.306460

SPLIT: Orbitals with angular momentum L= 1

SPLIT: Basis orbitals for state 2p

SPLIT: PAO cut-off radius determined from an
SPLIT: energy shift=  0.010000 Ry
Split based on tail norm

   izeta = 1
                 lambda =    1.000000
                     rc =    4.299534
                 energy =   -0.652755
                kinetic =    4.913628
    potential(screened) =   -5.566382
       potential(ionic) =  -13.292903

POLgen: Perturbative polarization orbital with L=  2

POLgen: Polarization orbital for state 2p
Split based on tail norm

   izeta = 1
                     rc =    4.299534
                 energy =    2.258078
                kinetic =    4.298689
    potential(screened) =   -2.040611
       potential(ionic) =   -8.188336
atom: Total number of Sankey-type orbitals:  9

atm_pop: Valence configuration (for local Pseudopot. screening):
 2s( 2.00)                                                            
 2p( 4.00)                                                            
 3d( 0.00)                                                            
Vna: chval, zval:    6.00000   6.00000

Vna:  Cut-off radius for the neutral-atom potential:   4.299534
comcore: Pseudo-core radius Rcore=  1.364142

atom: _________________________________________________________________________

<basis_specs>
===============================================================================
H                    Z=   1    Mass=  1.0080        Charge= 0.17977+309
Lmxo=1 Lmxkb= 2    BasisType=split      Semic=F
L=0  Nsemic=0  Cnfigmx=1
          i=1  nzeta=1  polorb=1  (1s)  (to be polarized perturbatively)
            splnorm:   0.15000    
               vcte:    40.000    
               rinn:  -0.90000    
               qcoe:    0.0000    
               qyuk:    0.0000    
               qwid:   0.10000E-01
                rcs:    0.0000    
            lambdas:    1.0000    
L=1  Nsemic=0  Cnfigmx=2
          i=1  nzeta=0  polorb=0  (2p)  (perturbative polarization orbital) (from 1s)
-------------------------------------------------------------------------------
L=0  Nkbl=1  erefs: 0.17977+309
L=1  Nkbl=1  erefs: 0.17977+309
L=2  Nkbl=1  erefs: 0.17977+309
===============================================================================
</basis_specs>

Using PAO.SplitTailNorm
atom: Called for H                     (Z =   1)
Maximum radius (at nrval) set to   50.00000 8518

read_vps: Pseudopotential generation method:
read_vps: ATM3      Troullier-Martins                       
Valence charge in pseudo generation:    1.00000

xc_check: Exchange-correlation functional:
xc_check: GGA Perdew, Burke & Ernzerhof 1996
V l=0 = -2*Zval/r beyond r=  1.2384
V l=1 = -2*Zval/r beyond r=  1.2321
V l=2 = -2*Zval/r beyond r=  1.2235
All V_l potentials equal beyond r=  1.2371
This should be close to max(r_c) in ps generation
All pots = -2*Zval/r beyond r=  1.2384
Using small-core scheme (local charge) for Vlocal

VLOCAL_FROM_CHLOCAL: 99.0% of the norm of Vloc inside     28.363 Ry
VLOCAL_FROM_CHLOCAL: 99.9% of the norm of Vloc inside     64.639 Ry
atom: Maximum radius for chlocal:    1.44620
atom: Maximum radius for r*vlocal+2*Zval:    1.31026

KBgen: Kleinman-Bylander projectors: 
GHOST: No ghost state for L =  0
   l= 0   rc=  1.362769   el= -0.477200   Ekb= -2.026093   kbcos= -0.345051
GHOST: No ghost state for L =  1
   l= 1   rc=  1.431710   el=  0.007219   Ekb= -0.445752   kbcos= -0.023729
GHOST: No ghost state for L =  2
   l= 2   rc=  1.471166   el=  0.012944   Ekb= -0.141918   kbcos= -0.003041

KBgen: Total number of Kleinman-Bylander projectors:   9
atom: -------------------------------------------------------------------------

atom: SANKEY-TYPE ORBITALS:

SPLIT: Orbitals with angular momentum L= 0

SPLIT: Basis orbitals for state 1s

SPLIT: PAO cut-off radius determined from an
SPLIT: energy shift=  0.010000 Ry
Split based on tail norm

   izeta = 1
                 lambda =    1.000000
                     rc =    5.232664
                 energy =   -0.466073
                kinetic =    0.944036
    potential(screened) =   -1.410108
       potential(ionic) =   -1.935607

POLgen: Perturbative polarization orbital with L=  1

POLgen: Polarization orbital for state 1s
Split based on tail norm

   izeta = 1
                     rc =    5.232664
                 energy =    0.681103
                kinetic =    1.331928
    potential(screened) =   -0.650824
       potential(ionic) =   -1.138826
atom: Total number of Sankey-type orbitals:  4

atm_pop: Valence configuration (for local Pseudopot. screening):
 1s( 1.00)                                                            
 2p( 0.00)                                                            
Vna: chval, zval:    1.00000   1.00000

Vna:  Cut-off radius for the neutral-atom potential:   5.232664

atom: _________________________________________________________________________

prinput: Basis input 

PAO.BasisType split     

%block ChemicalSpeciesLabel
    1    8 O                       # Species index, atomic number, species label
    2    1 H                       # Species index, atomic number, species label
%endblock ChemicalSpeciesLabel

%block PAO.Basis                 # Define Basis set
# WARNING: This information might be incomplete!
O                     2                    # Species label, number of l-shells
 n=2   0   1                         # n, l, Nzeta 
   3.532   
   1.000   
 n=2   1   1 P   1                   # n, l, Nzeta, Polarization, NzetaPol
   4.300   
   1.000   
H                     1                    # Species label, number of l-shells
 n=1   0   1 P   1                   # n, l, Nzeta, Polarization, NzetaPol
   5.233   
   1.000   
%endblock PAO.Basis

prinput: ----------------------------------------------------------------------

Dumping basis to NetCDF file O.ion.nc
Dumping basis to NetCDF file H.ion.nc
coor:   Atomic-coordinates input format  =     Cartesian coordinates
coor:                                          (in Angstroms)

ioxv: Reading coordinates and velocities from file
! Info in XV file prevails over previous structure input
WARNING: xoc.VERLET_RESTART not found--reading only XV file and moving back 1 time step using Euler

siesta: Atomic coordinates (Bohr) and species
siesta:      2.54735  -0.00100  -0.00070  1        1
siesta:      5.01155  -0.00100  -0.00070  1        2
siesta:     12.91289   0.01600   0.01130  2        3
siesta:     14.28278   0.01600   0.01130  2        4

siesta: System type = chain     

initatomlists: Number of atoms, orbitals, and projectors:      4    26    50

coxmol: Writing XMOL coordinates into file xoc.xyz                                                                                                                                                                                                                             

siesta: ******************** Simulation parameters ****************************
siesta:
siesta: The following are some of the parameters of the simulation.
siesta: A complete list of the parameters used, including default values,
siesta: can be found in file out.fdf
siesta:
redata: Spin configuration                          = none
redata: Number of spin components                   = 1
redata: Time-Reversal Symmetry                      = T
redata: Spin spiral                                 = F
redata: Long output                                 =   F
redata: Number of Atomic Species                    =        2
redata: Charge density info will appear in .RHO file
redata: Write Mulliken charges (when)               = none
redata: Write Mulliken Pop.                         = NO
redata: Write Hirshfeld charges (when)              = none
redata: Write Voronoi charges (when)                = none
redata: Write spin charge (when)                    = none
redata: Matel table size (NRTAB)                    =     1024
redata: Mesh Cutoff                                 =   200.0000 Ry
redata: Net charge of the system                    =     0.0000 |e|
redata: Min. number of SCF Iter                     =        0
redata: Max. number of SCF Iter                     =      250
redata: SCF convergence failure will abort job
redata: SCF mix quantity                            = Hamiltonian
redata: Mix DM or H after convergence               =   F
redata: Recompute H after scf cycle                 =   F
redata: Mix DM in first SCF step                    =   T
redata: Write Pulay info on disk                    =   F
redata: New DM Occupancy tolerance                  = 0.000000000001
redata: No kicks to SCF
redata: DM Mixing Weight for Kicks                  =     0.5000
redata: Require Harris convergence for SCF          =   F
redata: Harris energy tolerance for SCF             =     0.000100 eV
redata: Require DM convergence for SCF              =   T
redata: DM tolerance for SCF                        =     0.000300
redata: Require EDM convergence for SCF             =   F
redata: EDM tolerance for SCF                       =     0.001000 eV
redata: Require H convergence for SCF               =   T
redata: Hamiltonian tolerance for SCF               =     0.001000 eV
redata: Require (free) Energy convergence for SCF   =   F
redata: (free) Energy tolerance for SCF             =     0.000100 eV
redata: Using DFT-D3 dispersion                     =   F
redata: Using Saved Data (generic)                  =   F
redata: Use continuation files for DM               =   T
redata: Neglect nonoverlap interactions             =   F
redata: Method of Calculation                       = Diagonalization
redata: Electronic Temperature                      =   290.1130 K
redata: Fix the spin of the system                  =   F
redata: Max. number of TDED Iter                    =        1
redata: Number of TDED substeps                     =        3
redata: Dynamics option                             = Verlet MD run
redata: Initial MD time step                        =        1
redata:   Final MD time step                        =      200
redata: Length of MD time step                      =     1.0000 fs
redata: Initial Temperature of MD run               =     0.0000 K
redata: Perform a MD quench                         =   F
mix.SCF: Pulay mixing                            = Pulay
mix.SCF:    Variant                              = stable
mix.SCF:    History steps                        = 6
mix.SCF:    Linear mixing weight                 =     0.020000
mix.SCF:    Mixing weight                        =     0.020000
mix.SCF:    SVD condition                        = 0.1000E-07
redata: Save all siesta data in one NC              =   F
redata: ***********************************************************************

%block SCF.Mixers
  Pulay
%endblock SCF.Mixers

%block SCF.Mixer.Pulay
  # Mixing method
  method pulay
  variant stable

  # Mixing options
  weight 0.0200
  weight.linear 0.0200
  history 6
%endblock SCF.Mixer.Pulay

Size of DM history Fstack: 1
Total number of electrons:    14.000000
Total ionic charge:    14.000000
 Kpoints in:            1 . Kpoints trimmed:            1

siesta: k-grid: Number of k-points = 1
siesta: k-points from Monkhorst-Pack grid
siesta: k-cutoff (effective) =     5.000 Ang
siesta: k-point supercell and displacements
siesta: k-grid:     1     0     0      0.000
siesta: k-grid:     0     1     0      0.000
siesta: k-grid:     0     0     1      0.000

diag: Algorithm                                     = D&C
diag: Used triangular part                          = Lower
diag: Absolute tolerance                            =  0.100E-15
diag: Orthogonalization factor                      =  0.100E-05
diag: Memory factor                                 =  1.0000


ts: **************************************************************
ts: Save H and S matrices                           =    F
ts: Save DM and EDM matrices                        =    F
ts: Only save the overlap matrix S                  =    F
ts: **************************************************************

************************ Begin: TS CHECKS AND WARNINGS ************************
************************ End: TS CHECKS AND WARNINGS **************************


                     ====================================
                        Begin MD step =      1
                     ====================================

outcell: Unit cell vectors (Ang):
       10.000004    0.000000    0.000000
        0.000000   10.000004    0.000000
        0.000000    0.000000   10.000004

outcell: Cell vector modules (Ang)   :   10.000004   10.000004   10.000004
outcell: Cell angles (23,13,12) (deg):     90.0000     90.0000     90.0000
outcell: Cell volume (Ang**3)        :   1000.0012
Gamma-point calculation with multiply-connected orbital pairs
Gamma-point calculation with multiply-connected orbital pairs
Folding of H and S implicitly performed
Folding of H and S implicitly performed
<dSpData1D:S at geom step 1
  <sparsity:sparsity for geom step 1
    nrows_g=26 nrows=26 sparsity=1.0000 nnzs=676, refcount: 7>
  <dData1D:(new from dSpData1D) n=676, refcount: 1>
refcount: 1>
new_DM -- step:     1
Initializing Density Matrix...

Attempting to read DM from file... Failed...
DM filled with atomic data:
<dSpData2D:DM initialized from atoms
  <sparsity:sparsity for geom step 1
    nrows_g=26 nrows=26 sparsity=1.0000 nnzs=676, refcount: 8>
  <dData2D:DM n=676 m=1, refcount: 1>
refcount: 1>
No. of atoms with KB's overlaping orbs in proc 0. Max # of overlaps:       4      22

InitMesh: MESH = 90 x 90 x 90 = 729000
InitMesh: Mesh cutoff (required, used) =   200.000   223.865 Ry
New grid distribution [1]: sub = 2

stepf: Fermi-Dirac step function

siesta: Program's energy decomposition (eV):
siesta: Ebs     =      -210.154557
siesta: Eions   =      1581.702395
siesta: Ena     =       338.517809
siesta: Ekin    =       624.680260
siesta: Enl     =       -90.877101
siesta: Eso     =         0.000000
siesta: Edftu   =         0.000000
siesta: DEna    =        14.305769
siesta: DUscf   =         1.601245
siesta: DUext   =         0.000000
siesta: Ex      =      -190.531278
siesta: Ec      =       -13.816940
siesta: Exc     =      -204.348218
siesta: EbV     =         0.000000
siesta: eta*DQ  =         0.000000
siesta: Emadel  =         0.000000
siesta: Emeta   =         0.000000
siesta: Emolmec =         0.000000
siesta: Ekinion =         0.000000
siesta: Eharris =      -900.238409
siesta: Etot    =      -897.822632
siesta: FreeEng =      -897.891947

        iscf     Eharris(eV)        E_KS(eV)     FreeEng(eV)     dDmax    Ef(eV) dHmax(eV)
   scf:    1     -900.238409     -897.822632     -897.891947  0.774867 -4.685386  2.424864
timer: Routine,Calls,Time,% = IterSCF        1       0.565  25.04
   scf:    2     -897.860588     -897.841668     -897.910982  0.001845 -4.717999  2.358837
   scf:    3     -898.283373     -898.126669     -898.195983  0.064673 -5.797761  0.206719
   scf:    4     -898.126638     -898.128049     -898.197363  0.009159 -5.712090  0.383852
   scf:    5     -898.131225     -898.130108     -898.199423  0.008269 -5.921596  0.049998
   scf:    6     -898.130313     -898.130286     -898.199601  0.001936 -5.905335  0.015840
mix: Pulay -- inversion failed, > SVD [rank/size] 4 / 5
   scf:    7     -898.130298     -898.130292     -898.199607  0.000088 -5.906553  0.013238
   scf:    8     -898.130316     -898.130306     -898.199621  0.000412 -5.908725  0.001865
   scf:    9     -898.130307     -898.130307     -898.199622  0.000335 -5.909199  0.000186
   scf:   10     -898.130307     -898.130307     -898.199622  0.000006 -5.909144  0.000168

SCF Convergence by DM+H criterion
max |DM_out - DM_in|         :     0.0000058332
max |H_out - H_in|      (eV) :     0.0001684775
SCF cycle converged after 10 iterations

Using DM_out to compute the final energy and forces
No. of atoms with KB's overlaping orbs in proc 0. Max # of overlaps:       4      22

siesta: E_KS(eV) =             -898.1303

siesta: E_KS - E_eggbox =      -898.1303

siesta: Atomic forces (eV/Ang):
----------------------------------------
   Tot    0.008042    0.000353    0.000263
----------------------------------------
   Max    5.167532
   Res    2.106008    sqrt( Sum f_i^2 / 3N )
----------------------------------------
   Max    5.167532    constrained

Stress tensor Voigt[x,y,z,yz,xz,xy] (kbar):      -18.85       -0.42       -0.25       -0.10       -0.04        0.20
(Free)E + p*V (eV/cell)     -894.1402
Target enthalpy (eV/cell)     -898.1996

siesta: Stress tensor (static) (eV/Ang**3):
        -0.003685   -0.000000   -0.000000
        -0.000000    0.000006    0.000000
        -0.000000    0.000000    0.000006

siesta: Pressure (static):          1.96138091  kBar

siesta: Stress tensor (total) (eV/Ang**3):
        -0.011765    0.000128   -0.000024
         0.000128   -0.000259   -0.000060
        -0.000024   -0.000060   -0.000154

siesta: Pressure (total):          6.50387290  kBar

siesta: Temp_ion =   10967.058 K

                     ====================================
                        Begin MD step =      2
                     ====================================

outcell: Unit cell vectors (Ang):
       10.000004    0.000000    0.000000
        0.000000   10.000004    0.000000
        0.000000    0.000000   10.000004

outcell: Cell vector modules (Ang)   :   10.000004   10.000004   10.000004
outcell: Cell angles (23,13,12) (deg):     90.0000     90.0000     90.0000
outcell: Cell volume (Ang**3)        :   1000.0012
<dSpData1D:S at geom step 2
  <sparsity:sparsity for geom step 2
    nrows_g=26 nrows=26 sparsity=.9763 nnzs=660, refcount: 7>
  <dData1D:(new from dSpData1D) n=660, refcount: 1>
refcount: 1>
new_DM -- step:     2
Re-using DM from previous geometries...
Number of DMs in history: 1
 DM extrapolation coefficients: 
1   1.00000
New DM after history re-use:
<dSpData2D:SpM extrapolated using coords
  <sparsity:sparsity for geom step 2
    nrows_g=26 nrows=26 sparsity=.9763 nnzs=660, refcount: 9>
  <dData2D:(temp array for extrapolation) n=660 m=1, refcount: 1>
refcount: 1>
Note: For starting DM, Qtot, Tr[D*S] =         14.00000000         13.97895504
No. of atoms with KB's overlaping orbs in proc 0. Max # of overlaps:       4      18

InitMesh: MESH = 90 x 90 x 90 = 729000
InitMesh: Mesh cutoff (required, used) =   200.000   223.865 Ry
New grid distribution [1]: sub = 2

        iscf     Eharris(eV)        E_KS(eV)     FreeEng(eV)     dDmax    Ef(eV) dHmax(eV)
   scf:    1     -898.107738     -898.328154     -898.397469  0.012560 -5.642610  0.281959
   scf:    2     -898.326659     -898.328306     -898.397612  0.011362 -5.892336  0.133331
   scf:    3     -898.329596     -898.329017     -898.398330  0.004244 -5.834955  0.074000
   scf:    4     -898.329029     -898.329197     -898.398507  0.011546 -5.847507  0.025484
   scf:    5     -898.329148     -898.329254     -898.398566  0.009496 -5.850713  0.020361
   scf:    6     -898.329315     -898.329286     -898.398600  0.001108 -5.869161  0.013442
   scf:    7     -898.329317     -898.329311     -898.398626  0.002825 -5.864748  0.000950
   scf:    8     -898.329311     -898.329311     -898.398625  0.000204 -5.865141  0.000251

SCF Convergence by DM+H criterion
max |DM_out - DM_in|         :     0.0002042847
max |H_out - H_in|      (eV) :     0.0002508607
SCF cycle converged after 8 iterations

Using DM_out to compute the final energy and forces
No. of atoms with KB's overlaping orbs in proc 0. Max # of overlaps:       4      18

siesta: E_KS(eV) =             -898.3293

siesta: Atomic forces (eV/Ang):
----------------------------------------
   Tot    0.000694    0.000169    0.000169
----------------------------------------
   Max    2.718644
   Res    1.134192    sqrt( Sum f_i^2 / 3N )
----------------------------------------
   Max    2.718644    constrained

Stress tensor Voigt[x,y,z,yz,xz,xy] (kbar):      -17.34       -0.42       -0.26       -0.11       -0.27        0.04
(Free)E + p*V (eV/cell)     -894.6475
Target enthalpy (eV/cell)     -898.3986

siesta: Stress tensor (static) (eV/Ang**3):
        -0.002744   -0.000104   -0.000145
        -0.000104    0.000001   -0.000007
        -0.000145   -0.000007   -0.000004

siesta: Pressure (static):          1.46739543  kBar

siesta: Stress tensor (total) (eV/Ang**3):
        -0.010825    0.000023   -0.000169
         0.000023   -0.000264   -0.000066
        -0.000169   -0.000066   -0.000164

siesta: Pressure (total):          6.00988742  kBar

siesta: Temp_ion =   11358.381 K

                     ====================================
                        Begin MD step =      3
                     ====================================

outcell: Unit cell vectors (Ang):
       10.000004    0.000000    0.000000
        0.000000   10.000004    0.000000
        0.000000    0.000000   10.000004

outcell: Cell vector modules (Ang)   :   10.000004   10.000004   10.000004
outcell: Cell angles (23,13,12) (deg):     90.0000     90.0000     90.0000
outcell: Cell volume (Ang**3)        :   1000.0012
Gamma-point calculation with multiply-connected orbital pairs
Gamma-point calculation with multiply-connected orbital pairs
Folding of H and S implicitly performed
Folding of H and S implicitly performed
<dSpData1D:S at geom step 3
  <sparsity:sparsity for geom step 3
    nrows_g=26 nrows=26 sparsity=1.0000 nnzs=676, refcount: 7>
  <dData1D:(new from dSpData1D) n=676, refcount: 1>
refcount: 1>
new_DM -- step:     3
Re-using DM from previous geometries...
Number of DMs in history: 1
 DM extrapolation coefficients: 
1   1.00000
New DM after history re-use:
<dSpData2D:SpM extrapolated using coords
  <sparsity:sparsity for geom step 3
    nrows_g=26 nrows=26 sparsity=1.0000 nnzs=676, refcount: 9>
  <dData2D:(temp array for extrapolation) n=676 m=1, refcount: 1>
refcount: 1>
Note: For starting DM, Qtot, Tr[D*S] =         14.00000000         13.94834938
No. of atoms with KB's overlaping orbs in proc 0. Max # of overlaps:       4      22

InitMesh: MESH = 90 x 90 x 90 = 729000
InitMesh: Mesh cutoff (required, used) =   200.000   223.865 Ry
New grid distribution [1]: sub = 2

        iscf     Eharris(eV)        E_KS(eV)     FreeEng(eV)     dDmax    Ef(eV) dHmax(eV)
   scf:    1     -898.077688     -898.419043     -898.488357  0.024338 -5.315026  0.624882
   scf:    2     -898.408175     -898.417313     -898.486483  0.032576 -5.875540  0.258571
   scf:    3     -898.422863     -898.420373     -898.489636  0.012293 -5.770412  0.159869
   scf:    4     -898.418782     -898.421279     -898.490528  0.037636 -5.797117  0.052982
   scf:    5     -898.421831     -898.422100     -898.491413  0.023377 -5.802520  0.041518
   scf:    6     -898.422189     -898.422148     -898.491462  0.000991 -5.829208  0.034635
   scf:    7     -898.422325     -898.422262     -898.491577  0.002441 -5.827700  0.001987
   scf:    8     -898.422261     -898.422262     -898.491576  0.000476 -5.827940  0.001588
   scf:    9     -898.422261     -898.422261     -898.491576  0.000167 -5.828752  0.000885

SCF Convergence by DM+H criterion
max |DM_out - DM_in|         :     0.0001667563
max |H_out - H_in|      (eV) :     0.0008853048
SCF cycle converged after 9 iterations

Using DM_out to compute the final energy and forces
No. of atoms with KB's overlaping orbs in proc 0. Max # of overlaps:       4      22

siesta: E_KS(eV) =             -898.4223

siesta: Atomic forces (eV/Ang):
----------------------------------------
   Tot    0.000593   -0.000087    0.000207
----------------------------------------
   Max    1.041885
   Res    0.489225    sqrt( Sum f_i^2 / 3N )
----------------------------------------
   Max    1.041885    constrained

Stress tensor Voigt[x,y,z,yz,xz,xy] (kbar):      -14.59       -0.42       -0.25       -0.10       -0.27       -0.01
(Free)E + p*V (eV/cell)     -895.3166
Target enthalpy (eV/cell)     -898.4916

siesta: Stress tensor (static) (eV/Ang**3):
        -0.000738    0.000011    0.000073
         0.000011    0.000008    0.000006
         0.000073    0.000006    0.000014

siesta: Pressure (static):          0.38231044  kBar

siesta: Stress tensor (total) (eV/Ang**3):
        -0.009107   -0.000009   -0.000169
        -0.000009   -0.000262   -0.000061
        -0.000169   -0.000061   -0.000156

siesta: Pressure (total):          5.08688599  kBar

siesta: Temp_ion =   11590.625 K

                     ====================================
                        Begin MD step =      4
                     ====================================

outcell: Unit cell vectors (Ang):
       10.000004    0.000000    0.000000
        0.000000   10.000004    0.000000
        0.000000    0.000000   10.000004

outcell: Cell vector modules (Ang)   :   10.000004   10.000004   10.000004
outcell: Cell angles (23,13,12) (deg):     90.0000     90.0000     90.0000
outcell: Cell volume (Ang**3)        :   1000.0012
<dSpData1D:S at geom step 4
  <sparsity:sparsity for geom step 4
    nrows_g=26 nrows=26 sparsity=1.0000 nnzs=676, refcount: 7>
  <dData1D:(new from dSpData1D) n=676, refcount: 1>
refcount: 1>
new_DM -- step:     4
Re-using DM from previous geometries...
Number of DMs in history: 1
 DM extrapolation coefficients: 
1   1.00000
New DM after history re-use:
<dSpData2D:SpM extrapolated using coords
  <sparsity:sparsity for geom step 4
    nrows_g=26 nrows=26 sparsity=1.0000 nnzs=676, refcount: 9>
  <dData2D:(temp array for extrapolation) n=676 m=1, refcount: 1>
refcount: 1>
Note: For starting DM, Qtot, Tr[D*S] =         14.00000000         13.94489276
No. of atoms with KB's overlaping orbs in proc 0. Max # of overlaps:       4      22

InitMesh: MESH = 90 x 90 x 90 = 729000
InitMesh: Mesh cutoff (required, used) =   200.000   223.865 Ry
New grid distribution [1]: sub = 2

        iscf     Eharris(eV)        E_KS(eV)     FreeEng(eV)     dDmax    Ef(eV) dHmax(eV)
   scf:    1     -897.886541     -898.257875     -898.327182  0.022212 -5.255983  0.679237
   scf:    2     -898.204471     -898.242906     -898.311134  0.100813 -5.852138  0.411952
   scf:    3     -898.264137     -898.254975     -898.323932  0.038854 -5.724741  0.271040
   scf:    4     -898.249501     -898.258817     -898.327950  0.086693 -5.766566  0.107354
   scf:    5     -898.259467     -898.261079     -898.330376  0.046926 -5.771178  0.039708
   scf:    6     -898.261301     -898.261213     -898.330523  0.005094 -5.776953  0.041209
   scf:    7     -898.261501     -898.261401     -898.330715  0.004888 -5.802877  0.002153
   scf:    8     -898.261403     -898.261402     -898.330717  0.000665 -5.802081  0.002464
   scf:    9     -898.261401     -898.261402     -898.330717  0.000667 -5.803528  0.001629
   scf:   10     -898.261402     -898.261402     -898.330717  0.000053 -5.803632  0.001351
   scf:   11     -898.261403     -898.261403     -898.330717  0.000534 -5.804167  0.000115
   scf:   12     -898.261403     -898.261403     -898.330717  0.000001 -5.804166  0.000111

SCF Convergence by DM+H criterion
max |DM_out - DM_in|         :     0.0000005388
max |H_out - H_in|      (eV) :     0.0001109993
SCF cycle converged after 12 iterations

Using DM_out to compute the final energy and forces
No. of atoms with KB's overlaping orbs in proc 0. Max # of overlaps:       4      22

siesta: E_KS(eV) =             -898.2614

siesta: Atomic forces (eV/Ang):
----------------------------------------
   Tot   -0.000540   -0.000130    0.000246
----------------------------------------
   Max    2.307993
   Res    1.131122    sqrt( Sum f_i^2 / 3N )
----------------------------------------
   Max    2.307993    constrained

Stress tensor Voigt[x,y,z,yz,xz,xy] (kbar):      -12.95       -0.39       -0.17       -0.04        0.15        0.17
(Free)E + p*V (eV/cell)     -895.5212
Target enthalpy (eV/cell)     -898.3307

siesta: Stress tensor (static) (eV/Ang**3):
         0.000458    0.000183    0.000398
         0.000183    0.000030    0.000044
         0.000398    0.000044    0.000073

siesta: Pressure (static):         -0.29944406  kBar

siesta: Stress tensor (total) (eV/Ang**3):
        -0.008082    0.000109    0.000094
         0.000109   -0.000243   -0.000026
         0.000094   -0.000026   -0.000104

siesta: Pressure (total):          4.50132557  kBar

siesta: Temp_ion =   11226.312 K

                     ====================================
                        Begin MD step =      5
                     ====================================

outcell: Unit cell vectors (Ang):
       10.000004    0.000000    0.000000
        0.000000   10.000004    0.000000
        0.000000    0.000000   10.000004

outcell: Cell vector modules (Ang)   :   10.000004   10.000004   10.000004
outcell: Cell angles (23,13,12) (deg):     90.0000     90.0000     90.0000
outcell: Cell volume (Ang**3)        :   1000.0012
<dSpData1D:S at geom step 5
  <sparsity:sparsity for geom step 5
    nrows_g=26 nrows=26 sparsity=1.0000 nnzs=676, refcount: 7>
  <dData1D:(new from dSpData1D) n=676, refcount: 1>
refcount: 1>
new_DM -- step:     5
Re-using DM from previous geometries...
Number of DMs in history: 1
 DM extrapolation coefficients: 
1   1.00000
New DM after history re-use:
<dSpData2D:SpM extrapolated using coords
  <sparsity:sparsity for geom step 5
    nrows_g=26 nrows=26 sparsity=1.0000 nnzs=676, refcount: 9>
  <dData2D:(temp array for extrapolation) n=676 m=1, refcount: 1>
refcount: 1>
Note: For starting DM, Qtot, Tr[D*S] =         14.00000000         13.96631321
No. of atoms with KB's overlaping orbs in proc 0. Max # of overlaps:       4      22

InitMesh: MESH = 90 x 90 x 90 = 729000
InitMesh: Mesh cutoff (required, used) =   200.000   223.865 Ry
New grid distribution [1]: sub = 2

        iscf     Eharris(eV)        E_KS(eV)     FreeEng(eV)     dDmax    Ef(eV) dHmax(eV)
   scf:    1     -897.852041     -898.104390     -898.173705  0.013060 -5.449752  0.437051
   scf:    2     -898.094919     -898.102185     -898.171457  0.025752 -5.826471  0.255136
   scf:    3     -898.106391     -898.104517     -898.173818  0.009561 -5.739788  0.172337
   scf:    4     -898.104588     -898.105451     -898.174738  0.026293 -5.775830  0.031879
   scf:    5     -898.105676     -898.105796     -898.175110  0.015978 -5.778950  0.026315
   scf:    6     -898.105820     -898.105810     -898.175123  0.001064 -5.789494  0.020545
   scf:    7     -898.105884     -898.105864     -898.175178  0.003495 -5.793920  0.001612
   scf:    8     -898.105863     -898.105863     -898.175178  0.000322 -5.794311  0.000569
   scf:    9     -898.105863     -898.105863     -898.175178  0.000020 -5.794466  0.000501

SCF Convergence by DM+H criterion
max |DM_out - DM_in|         :     0.0000204097
max |H_out - H_in|      (eV) :     0.0005010237
SCF cycle converged after 9 iterations

Using DM_out to compute the final energy and forces
No. of atoms with KB's overlaping orbs in proc 0. Max # of overlaps:       4      22

siesta: E_KS(eV) =             -898.1059

siesta: Atomic forces (eV/Ang):
----------------------------------------
   Tot   -0.000332    0.000565    0.000173
----------------------------------------
   Max    2.900203
   Res    1.419802    sqrt( Sum f_i^2 / 3N )
----------------------------------------
   Max    2.900203    constrained

Stress tensor Voigt[x,y,z,yz,xz,xy] (kbar):      -11.98       -0.33       -0.02        0.06        0.71        0.43
(Free)E + p*V (eV/cell)     -895.6099
Target enthalpy (eV/cell)     -898.1752

siesta: Stress tensor (static) (eV/Ang**3):
         0.000816    0.000295    0.000643
         0.000295    0.000055    0.000089
         0.000643    0.000089    0.000140

siesta: Pressure (static):         -0.53977194  kBar

siesta: Stress tensor (total) (eV/Ang**3):
        -0.007477    0.000265    0.000441
         0.000265   -0.000208    0.000035
         0.000441    0.000035   -0.000011

siesta: Pressure (total):          4.11010123  kBar

siesta: Temp_ion =   10848.595 K

                     ====================================
                        Begin MD step =      6
                     ====================================

outcell: Unit cell vectors (Ang):
       10.000004    0.000000    0.000000
        0.000000   10.000004    0.000000
        0.000000    0.000000   10.000004

outcell: Cell vector modules (Ang)   :   10.000004   10.000004   10.000004
outcell: Cell angles (23,13,12) (deg):     90.0000     90.0000     90.0000
outcell: Cell volume (Ang**3)        :   1000.0012
<dSpData1D:S at geom step 6
  <sparsity:sparsity for geom step 6
    nrows_g=26 nrows=26 sparsity=.9882 nnzs=668, refcount: 7>
  <dData1D:(new from dSpData1D) n=668, refcount: 1>
refcount: 1>
new_DM -- step:     6
Re-using DM from previous geometries...
Number of DMs in history: 1
 DM extrapolation coefficients: 
1   1.00000
New DM after history re-use:
<dSpData2D:SpM extrapolated using coords
  <sparsity:sparsity for geom step 6
    nrows_g=26 nrows=26 sparsity=.9882 nnzs=668, refcount: 9>
  <dData2D:(temp array for extrapolation) n=668 m=1, refcount: 1>
refcount: 1>
No. of atoms with KB's overlaping orbs in proc 0. Max # of overlaps:       4      22

InitMesh: MESH = 90 x 90 x 90 = 729000
InitMesh: Mesh cutoff (required, used) =   200.000   223.865 Ry
New grid distribution [1]: sub = 2

        iscf     Eharris(eV)        E_KS(eV)     FreeEng(eV)     dDmax    Ef(eV) dHmax(eV)
   scf:    1     -898.052040     -898.103181     -898.172494  0.012678 -5.770195  0.050125
   scf:    2     -898.091086     -898.099408     -898.168407  0.041770 -5.807837  0.085308
   scf:    3     -898.104472     -898.102985     -898.172278  0.028304 -5.785713  0.038945
   scf:    4     -898.103120     -898.103232     -898.172546  0.011600 -5.797548  0.018968
   scf:    5     -898.103238     -898.103250     -898.172565  0.003169 -5.799017  0.005143
   scf:    6     -898.103253     -898.103252     -898.172567  0.000656 -5.800764  0.002781
   scf:    7     -898.103253     -898.103253     -898.172568  0.000491 -5.803438  0.000258
   scf:    8     -898.103253     -898.103253     -898.172568  0.000160 -5.803429  0.000188

SCF Convergence by DM+H criterion
max |DM_out - DM_in|         :     0.0001604381
max |H_out - H_in|      (eV) :     0.0001876241
SCF cycle converged after 8 iterations

Using DM_out to compute the final energy and forces
No. of atoms with KB's overlaping orbs in proc 0. Max # of overlaps:       4      22

siesta: E_KS(eV) =             -898.1033

siesta: Atomic forces (eV/Ang):
----------------------------------------
   Tot   -0.001376    0.000272   -0.000151
----------------------------------------
   Max    2.893263
   Res    1.465399    sqrt( Sum f_i^2 / 3N )
----------------------------------------
   Max    2.893263    constrained

Stress tensor Voigt[x,y,z,yz,xz,xy] (kbar):      -11.91       -0.28        0.14        0.16        1.12        0.58
(Free)E + p*V (eV/cell)     -895.6666
Target enthalpy (eV/cell)     -898.1726

siesta: Stress tensor (static) (eV/Ang**3):
         0.000635    0.000319    0.000753
         0.000319    0.000071    0.000122
         0.000753    0.000122    0.000190

siesta: Pressure (static):         -0.47847906  kBar

siesta: Stress tensor (total) (eV/Ang**3):
        -0.007432    0.000359    0.000700
         0.000359   -0.000173    0.000101
         0.000700    0.000101    0.000087

siesta: Pressure (total):          4.01494632  kBar

siesta: Temp_ion =   10843.285 K

                     ====================================
                        Begin MD step =      7
                     ====================================

outcell: Unit cell vectors (Ang):
       10.000004    0.000000    0.000000
        0.000000   10.000004    0.000000
        0.000000    0.000000   10.000004

outcell: Cell vector modules (Ang)   :   10.000004   10.000004   10.000004
outcell: Cell angles (23,13,12) (deg):     90.0000     90.0000     90.0000
outcell: Cell volume (Ang**3)        :   1000.0012
Gamma-point calculation with multiply-connected orbital pairs
Gamma-point calculation with multiply-connected orbital pairs
Folding of H and S implicitly performed
Folding of H and S implicitly performed
<dSpData1D:S at geom step 7
  <sparsity:sparsity for geom step 7
    nrows_g=26 nrows=26 sparsity=1.0000 nnzs=676, refcount: 7>
  <dData1D:(new from dSpData1D) n=676, refcount: 1>
refcount: 1>
new_DM -- step:     7
Re-using DM from previous geometries...
Number of DMs in history: 1
 DM extrapolation coefficients: 
1   1.00000
New DM after history re-use:
<dSpData2D:SpM extrapolated using coords
  <sparsity:sparsity for geom step 7
    nrows_g=26 nrows=26 sparsity=1.0000 nnzs=676, refcount: 9>
  <dData2D:(temp array for extrapolation) n=676 m=1, refcount: 1>
refcount: 1>
Note: For starting DM, Qtot, Tr[D*S] =         14.00000000         14.03443648
No. of atoms with KB's overlaping orbs in proc 0. Max # of overlaps:       4      26

InitMesh: MESH = 90 x 90 x 90 = 729000
InitMesh: Mesh cutoff (required, used) =   200.000   223.865 Ry
New grid distribution [1]: sub = 2

        iscf     Eharris(eV)        E_KS(eV)     FreeEng(eV)     dDmax    Ef(eV) dHmax(eV)
   scf:    1     -898.408264     -898.258398     -898.327712  0.012979 -6.115982  0.422941
   scf:    2     -898.212508     -898.244901     -898.314108  0.047331 -5.800742  0.482341
   scf:    3     -898.265913     -898.257926     -898.327226  0.026704 -5.948116  0.284555
   scf:    4     -898.257075     -898.259140     -898.328380  0.037962 -5.847701  0.039185
   scf:    5     -898.260044     -898.260009     -898.329324  0.022583 -5.840819  0.023892
   scf:    6     -898.260019     -898.260018     -898.329333  0.001523 -5.843179  0.018977
   scf:    7     -898.260072     -898.260052     -898.329367  0.001003 -5.831327  0.001277
   scf:    8     -898.260052     -898.260052     -898.329367  0.000059 -5.831596  0.001025
   scf:    9     -898.260052     -898.260052     -898.329367  0.000245 -5.830923  0.000398

SCF Convergence by DM+H criterion
max |DM_out - DM_in|         :     0.0002448669
max |H_out - H_in|      (eV) :     0.0003982331
SCF cycle converged after 9 iterations

Using DM_out to compute the final energy and forces
No. of atoms with KB's overlaping orbs in proc 0. Max # of overlaps:       4      26

siesta: E_KS(eV) =             -898.2601

siesta: Atomic forces (eV/Ang):
----------------------------------------
   Tot    0.003814    0.000076   -0.000434
----------------------------------------
   Max    2.332289
   Res    1.283375    sqrt( Sum f_i^2 / 3N )
----------------------------------------
   Max    2.332289    constrained

Stress tensor Voigt[x,y,z,yz,xz,xy] (kbar):      -13.11       -0.25        0.22        0.22        1.15        0.49
(Free)E + p*V (eV/cell)     -895.5964
Target enthalpy (eV/cell)     -898.3294

siesta: Stress tensor (static) (eV/Ang**3):
        -0.000051    0.000229    0.000668
         0.000229    0.000068    0.000126
         0.000668    0.000126    0.000194

siesta: Pressure (static):         -0.11252895  kBar

siesta: Stress tensor (total) (eV/Ang**3):
        -0.008180    0.000303    0.000719
         0.000303   -0.000159    0.000137
         0.000719    0.000137    0.000140

siesta: Pressure (total):          4.37869704  kBar

siesta: Temp_ion =   11227.127 K

                     ====================================
                        Begin MD step =      8
                     ====================================

outcell: Unit cell vectors (Ang):
       10.000004    0.000000    0.000000
        0.000000   10.000004    0.000000
        0.000000    0.000000   10.000004

outcell: Cell vector modules (Ang)   :   10.000004   10.000004   10.000004
outcell: Cell angles (23,13,12) (deg):     90.0000     90.0000     90.0000
outcell: Cell volume (Ang**3)        :   1000.0012
<dSpData1D:S at geom step 8
  <sparsity:sparsity for geom step 8
    nrows_g=26 nrows=26 sparsity=1.0000 nnzs=676, refcount: 7>
  <dData1D:(new from dSpData1D) n=676, refcount: 1>
refcount: 1>
new_DM -- step:     8
Re-using DM from previous geometries...
Number of DMs in history: 1
 DM extrapolation coefficients: 
1   1.00000
New DM after history re-use:
<dSpData2D:SpM extrapolated using coords
  <sparsity:sparsity for geom step 8
    nrows_g=26 nrows=26 sparsity=1.0000 nnzs=676, refcount: 9>
  <dData2D:(temp array for extrapolation) n=676 m=1, refcount: 1>
refcount: 1>
Note: For starting DM, Qtot, Tr[D*S] =         14.00000000         14.06056828
No. of atoms with KB's overlaping orbs in proc 0. Max # of overlaps:       4      26

InitMesh: MESH = 90 x 90 x 90 = 729000
InitMesh: Mesh cutoff (required, used) =   200.000   223.865 Ry
New grid distribution [1]: sub = 2

        iscf     Eharris(eV)        E_KS(eV)     FreeEng(eV)     dDmax    Ef(eV) dHmax(eV)
   scf:    1     -898.718643     -898.440160     -898.509471  0.022301 -6.388486  0.795781
   scf:    2     -898.244464     -898.382346     -898.451365  0.059071 -5.811306  0.966199
   scf:    3     -898.472436     -898.439659     -898.508944  0.034464 -6.107239  0.537378
   scf:    4     -898.438512     -898.444137     -898.513236  0.048247 -5.905459  0.043468
   scf:    5     -898.447131     -898.446432     -898.515737  0.027594 -5.893215  0.049171
   scf:    6     -898.446543     -898.446587     -898.515901  0.007753 -5.897606  0.036891
   scf:    7     -898.446783     -898.446710     -898.516025  0.001504 -5.874478  0.002980
   scf:    8     -898.446711     -898.446711     -898.516026  0.000674 -5.875574  0.001853
   scf:    9     -898.446710     -898.446711     -898.516026  0.000499 -5.874555  0.001023
   scf:   10     -898.446711     -898.446711     -898.516026  0.000032 -5.874500  0.000775

SCF Convergence by DM+H criterion
max |DM_out - DM_in|         :     0.0000316398
max |H_out - H_in|      (eV) :     0.0007751985
SCF cycle converged after 10 iterations

Using DM_out to compute the final energy and forces
No. of atoms with KB's overlaping orbs in proc 0. Max # of overlaps:       4      26

siesta: E_KS(eV) =             -898.4467

siesta: Atomic forces (eV/Ang):
----------------------------------------
   Tot    0.001331   -0.000015   -0.000680
----------------------------------------
   Max    1.844125
   Res    0.816459    sqrt( Sum f_i^2 / 3N )
----------------------------------------
   Max    1.844125    constrained

Stress tensor Voigt[x,y,z,yz,xz,xy] (kbar):      -15.65       -0.32        0.11        0.14        0.54        0.01
(Free)E + p*V (eV/cell)     -895.2155
Target enthalpy (eV/cell)     -898.5160

siesta: Stress tensor (static) (eV/Ang**3):
        -0.001300   -0.000050    0.000263
        -0.000050    0.000018    0.000057
         0.000263    0.000057    0.000088

siesta: Pressure (static):          0.63786257  kBar

siesta: Stress tensor (total) (eV/Ang**3):
        -0.009768    0.000004    0.000336
         0.000004   -0.000199    0.000090
         0.000336    0.000090    0.000066

siesta: Pressure (total):          5.28807333  kBar

siesta: Temp_ion =   11659.791 K

                     ====================================
                        Begin MD step =      9
                     ====================================

outcell: Unit cell vectors (Ang):
       10.000004    0.000000    0.000000
        0.000000   10.000004    0.000000
        0.000000    0.000000   10.000004

outcell: Cell vector modules (Ang)   :   10.000004   10.000004   10.000004
outcell: Cell angles (23,13,12) (deg):     90.0000     90.0000     90.0000
outcell: Cell volume (Ang**3)        :   1000.0012
<dSpData1D:S at geom step 9
  <sparsity:sparsity for geom step 9
    nrows_g=26 nrows=26 sparsity=1.0000 nnzs=676, refcount: 7>
  <dData1D:(new from dSpData1D) n=676, refcount: 1>
refcount: 1>
new_DM -- step:     9
Re-using DM from previous geometries...
Number of DMs in history: 1
 DM extrapolation coefficients: 
1   1.00000
New DM after history re-use:
<dSpData2D:SpM extrapolated using coords
  <sparsity:sparsity for geom step 9
    nrows_g=26 nrows=26 sparsity=1.0000 nnzs=676, refcount: 9>
  <dData2D:(temp array for extrapolation) n=676 m=1, refcount: 1>
refcount: 1>
Note: For starting DM, Qtot, Tr[D*S] =         14.00000000         14.06347515
No. of atoms with KB's overlaping orbs in proc 0. Max # of overlaps:       4      26

InitMesh: MESH = 90 x 90 x 90 = 729000
InitMesh: Mesh cutoff (required, used) =   200.000   223.865 Ry
New grid distribution [1]: sub = 2

        iscf     Eharris(eV)        E_KS(eV)     FreeEng(eV)     dDmax    Ef(eV) dHmax(eV)
   scf:    1     -898.684141     -898.398290     -898.467597  0.025151 -6.454071  0.891263
   scf:    2     -897.997170     -898.278170     -898.346693  0.132685 -5.856755  1.388541
   scf:    3     -898.458834     -898.401253     -898.470519  0.089903 -6.219085  0.605921
   scf:    4     -898.389254     -898.402934     -898.471761  0.085545 -5.975890  0.095476
   scf:    5     -898.410009     -898.407505     -898.476737  0.035275 -5.956118  0.064413
   scf:    6     -898.408520     -898.408551     -898.477866  0.025269 -5.959761  0.039728
   scf:    7     -898.408697     -898.408664     -898.477975  0.004699 -5.931259  0.012980
   scf:    8     -898.408691     -898.408693     -898.478008  0.004412 -5.934526  0.002063
   scf:    9     -898.408692     -898.408693     -898.478008  0.000643 -5.933147  0.001515
   scf:   10     -898.408693     -898.408693     -898.478008  0.000328 -5.933445  0.000683
   scf:   11     -898.408694     -898.408693     -898.478008  0.000111 -5.933441  0.000456

SCF Convergence by DM+H criterion
max |DM_out - DM_in|         :     0.0001111329
max |H_out - H_in|      (eV) :     0.0004559196
SCF cycle converged after 11 iterations

Using DM_out to compute the final energy and forces
No. of atoms with KB's overlaping orbs in proc 0. Max # of overlaps:       4      26

siesta: E_KS(eV) =             -898.4087

siesta: Atomic forces (eV/Ang):
----------------------------------------
   Tot    0.002218    0.000115   -0.000586
----------------------------------------
   Max    2.108170
   Res    1.109700    sqrt( Sum f_i^2 / 3N )
----------------------------------------
   Max    2.108170    constrained

Stress tensor Voigt[x,y,z,yz,xz,xy] (kbar):      -18.99       -0.54       -0.39       -0.18       -0.82       -0.92
(Free)E + p*V (eV/cell)     -894.3338
Target enthalpy (eV/cell)     -898.4780

siesta: Stress tensor (static) (eV/Ang**3):
        -0.003040   -0.000575   -0.000560
        -0.000575   -0.000120   -0.000151
        -0.000560   -0.000151   -0.000230

siesta: Pressure (static):          1.81030961  kBar

siesta: Stress tensor (total) (eV/Ang**3):
        -0.011854   -0.000572   -0.000512
        -0.000572   -0.000337   -0.000110
        -0.000512   -0.000110   -0.000241

siesta: Pressure (total):          6.63972736  kBar

siesta: Temp_ion =   11551.836 K

                     ====================================
                        Begin MD step =     10
                     ====================================

outcell: Unit cell vectors (Ang):
       10.000004    0.000000    0.000000
        0.000000   10.000004    0.000000
        0.000000    0.000000   10.000004

outcell: Cell vector modules (Ang)   :   10.000004   10.000004   10.000004
outcell: Cell angles (23,13,12) (deg):     90.0000     90.0000     90.0000
outcell: Cell volume (Ang**3)        :   1000.0012
<dSpData1D:S at geom step 10
  <sparsity:sparsity for geom step 10
    nrows_g=26 nrows=26 sparsity=1.0000 nnzs=676, refcount: 7>
  <dData1D:(new from dSpData1D) n=676, refcount: 1>
refcount: 1>
new_DM -- step:    10
Re-using DM from previous geometries...
Number of DMs in history: 1
 DM extrapolation coefficients: 
1   1.00000
New DM after history re-use:
<dSpData2D:SpM extrapolated using coords
  <sparsity:sparsity for geom step 10
    nrows_g=26 nrows=26 sparsity=1.0000 nnzs=676, refcount: 9>
  <dData2D:(temp array for extrapolation) n=676 m=1, refcount: 1>
refcount: 1>
Note: For starting DM, Qtot, Tr[D*S] =         14.00000000         14.03443289
No. of atoms with KB's overlaping orbs in proc 0. Max # of overlaps:       4      26

InitMesh: MESH = 90 x 90 x 90 = 729000
InitMesh: Mesh cutoff (required, used) =   200.000   223.865 Ry
New grid distribution [1]: sub = 2

        iscf     Eharris(eV)        E_KS(eV)     FreeEng(eV)     dDmax    Ef(eV) dHmax(eV)
   scf:    1     -898.377404     -898.197878     -898.267176  0.014450 -6.240951  0.568812
   scf:    2     -897.724840     -898.053979     -898.121678  0.121627 -5.960585  1.355889
   scf:    3     -898.245837     -898.204411     -898.273702  0.098082 -6.171008  0.287142
   scf:    4     -898.185733     -898.200103     -898.268869  0.073674 -6.058134  0.073194
   scf:    5     -898.205965     -898.203370     -898.272430  0.019413 -6.038886  0.056927
   scf:    6     -898.206225     -898.206111     -898.275425  0.038629 -6.029269  0.020532
   scf:    7     -898.205861     -898.206036     -898.275335  0.007081 -6.008448  0.009862
   scf:    8     -898.206140     -898.206149     -898.275463  0.008378 -6.012699  0.001101
   scf:    9     -898.206149     -898.206149     -898.275463  0.000370 -6.012028  0.001290
   scf:   10     -898.206149     -898.206149     -898.275463  0.000270 -6.012112  0.000700

SCF Convergence by DM+H criterion
max |DM_out - DM_in|         :     0.0002699644
max |H_out - H_in|      (eV) :     0.0007001473
SCF cycle converged after 10 iterations

Using DM_out to compute the final energy and forces
No. of atoms with KB's overlaping orbs in proc 0. Max # of overlaps:       4      26

siesta: E_KS(eV) =             -898.2061

siesta: Atomic forces (eV/Ang):
----------------------------------------
   Tot   -0.003328   -0.000436   -0.000766
----------------------------------------
   Max    4.397959
   Res    2.104471    sqrt( Sum f_i^2 / 3N )
----------------------------------------
   Max    4.397959    constrained

Stress tensor Voigt[x,y,z,yz,xz,xy] (kbar):      -20.16       -0.84       -1.06       -0.62       -1.99       -1.66
(Free)E + p*V (eV/cell)     -893.6862
Target enthalpy (eV/cell)     -898.2755

siesta: Stress tensor (static) (eV/Ang**3):
        -0.003862   -0.001028   -0.001320
        -0.001027   -0.000299   -0.000427
        -0.001320   -0.000427   -0.000648

siesta: Pressure (static):          2.56802772  kBar

siesta: Stress tensor (total) (eV/Ang**3):
        -0.012581   -0.001036   -0.001242
        -0.001036   -0.000523   -0.000388
        -0.001242   -0.000388   -0.000664

siesta: Pressure (total):          7.35273122  kBar

siesta: Temp_ion =   11150.587 K

                     ====================================
                        Begin MD step =     11
                     ====================================

outcell: Unit cell vectors (Ang):
       10.000004    0.000000    0.000000
        0.000000   10.000004    0.000000
        0.000000    0.000000   10.000004

outcell: Cell vector modules (Ang)   :   10.000004   10.000004   10.000004
outcell: Cell angles (23,13,12) (deg):     90.0000     90.0000     90.0000
outcell: Cell volume (Ang**3)        :   1000.0012
<dSpData1D:S at geom step 11
  <sparsity:sparsity for geom step 11
    nrows_g=26 nrows=26 sparsity=1.0000 nnzs=676, refcount: 7>
  <dData1D:(new from dSpData1D) n=676, refcount: 1>
refcount: 1>
new_DM -- step:    11
Re-using DM from previous geometries...
Number of DMs in history: 1
 DM extrapolation coefficients: 
1   1.00000
New DM after history re-use:
<dSpData2D:SpM extrapolated using coords
  <sparsity:sparsity for geom step 11
    nrows_g=26 nrows=26 sparsity=1.0000 nnzs=676, refcount: 9>
  <dData2D:(temp array for extrapolation) n=676 m=1, refcount: 1>
refcount: 1>
No. of atoms with KB's overlaping orbs in proc 0. Max # of overlaps:       4      26

InitMesh: MESH = 90 x 90 x 90 = 729000
InitMesh: Mesh cutoff (required, used) =   200.000   223.865 Ry
New grid distribution [1]: sub = 2

        iscf     Eharris(eV)        E_KS(eV)     FreeEng(eV)     dDmax    Ef(eV) dHmax(eV)
   scf:    1     -898.383474     -898.368400     -898.437643  0.033674 -5.943538  0.422959
   scf:    2     -897.823015     -898.199874     -898.262891  0.211425 -6.127214  1.233550
   scf:    3     -898.405742     -898.372908     -898.442183  0.177217 -5.982898  0.171510
   scf:    4     -898.346959     -898.366380     -898.434975  0.076938 -6.045274  0.142068
   scf:    5     -898.376270     -898.373206     -898.442442  0.041603 -6.034881  0.126564
   scf:    6     -898.373748     -898.373960     -898.443275  0.019908 -6.119983  0.015560
   scf:    7     -898.373402     -898.373830     -898.443117  0.011406 -6.112346  0.016849
   scf:    8     -898.373993     -898.374003     -898.443316  0.009300 -6.119617  0.001131
   scf:    9     -898.374003     -898.374004     -898.443316  0.000802 -6.119376  0.001355
   scf:   10     -898.374003     -898.374004     -898.443316  0.000485 -6.119973  0.000715
   scf:   11     -898.374004     -898.374004     -898.443316  0.000008 -6.120003  0.000699

SCF Convergence by DM+H criterion
max |DM_out - DM_in|         :     0.0000077318
max |H_out - H_in|      (eV) :     0.0006992294
SCF cycle converged after 11 iterations

Using DM_out to compute the final energy and forces
No. of atoms with KB's overlaping orbs in proc 0. Max # of overlaps:       4      26

siesta: E_KS(eV) =             -898.3740

siesta: Atomic forces (eV/Ang):
----------------------------------------
   Tot   -0.000475   -0.000314    0.000222
----------------------------------------
   Max    2.598288
   Res    1.293845    sqrt( Sum f_i^2 / 3N )
----------------------------------------
   Max    2.598288    constrained

Stress tensor Voigt[x,y,z,yz,xz,xy] (kbar):      -17.07       -0.82       -1.02       -0.59       -1.33       -1.14
(Free)E + p*V (eV/cell)     -894.5102
Target enthalpy (eV/cell)     -898.4433

siesta: Stress tensor (static) (eV/Ang**3):
        -0.002359   -0.000699   -0.000935
        -0.000699   -0.000250   -0.000360
        -0.000935   -0.000360   -0.000543

siesta: Pressure (static):          1.68303139  kBar

siesta: Stress tensor (total) (eV/Ang**3):
        -0.010653   -0.000714   -0.000830
        -0.000714   -0.000512   -0.000370
        -0.000830   -0.000370   -0.000635

siesta: Pressure (total):          6.30153975  kBar

siesta: Temp_ion =   11480.736 K

                     ====================================
                        Begin MD step =     12
                     ====================================

outcell: Unit cell vectors (Ang):
       10.000004    0.000000    0.000000
        0.000000   10.000004    0.000000
        0.000000    0.000000   10.000004

outcell: Cell vector modules (Ang)   :   10.000004   10.000004   10.000004
outcell: Cell angles (23,13,12) (deg):     90.0000     90.0000     90.0000
outcell: Cell volume (Ang**3)        :   1000.0012
<dSpData1D:S at geom step 12
  <sparsity:sparsity for geom step 12
    nrows_g=26 nrows=26 sparsity=1.0000 nnzs=676, refcount: 7>
  <dData1D:(new from dSpData1D) n=676, refcount: 1>
refcount: 1>
new_DM -- step:    12
Re-using DM from previous geometries...
Number of DMs in history: 1
 DM extrapolation coefficients: 
1   1.00000
New DM after history re-use:
<dSpData2D:SpM extrapolated using coords
  <sparsity:sparsity for geom step 12
    nrows_g=26 nrows=26 sparsity=1.0000 nnzs=676, refcount: 9>
  <dData2D:(temp array for extrapolation) n=676 m=1, refcount: 1>
refcount: 1>
Note: For starting DM, Qtot, Tr[D*S] =         14.00000000         13.96355536
No. of atoms with KB's overlaping orbs in proc 0. Max # of overlaps:       4      26

InitMesh: MESH = 90 x 90 x 90 = 729000
InitMesh: Mesh cutoff (required, used) =   200.000   223.865 Ry
New grid distribution [1]: sub = 2

        iscf     Eharris(eV)        E_KS(eV)     FreeEng(eV)     dDmax    Ef(eV) dHmax(eV)
   scf:    1     -898.264280     -898.469380     -898.538231  0.059171 -5.795362  0.752722
   scf:    2     -897.231563     -898.087641     -898.125894  0.508278 -6.360263  1.122959
   scf:    3     -898.613019     -898.439135     -898.505580  0.312033 -6.015534  0.506581
   scf:    4     -898.294003     -898.441934     -898.507610  0.297436 -6.101264  0.262270
   scf:    5     -898.107684     -898.300873     -898.352973  0.175675 -6.278311  0.395847
   scf:    6     -898.483121     -898.402355     -898.464298  0.111147 -6.245009  0.259551
   scf:    7     -898.438751     -898.476850     -898.545979  0.256821 -6.257664  0.051636
   scf:    8     -898.471372     -898.478629     -898.547741  0.072750 -6.265586  0.036503
   scf:    9     -898.471276     -898.475419     -898.544198  0.023222 -6.265682  0.064281
   scf:   10     -898.481539     -898.479879     -898.549135  0.040529 -6.264136  0.015328
   scf:   11     -898.479968     -898.479925     -898.549188  0.001265 -6.264585  0.013800
   scf:   12     -898.480081     -898.480122     -898.549430  0.011961 -6.267075  0.001512
   scf:   13     -898.480125     -898.480124     -898.549431  0.000630 -6.266927  0.001606
   scf:   14     -898.480124     -898.480124     -898.549431  0.000091 -6.267122  0.001612
   scf:   15     -898.480124     -898.480124     -898.549431  0.000308 -6.267779  0.000321
   scf:   16     -898.480124     -898.480124     -898.549431  0.000057 -6.267701  0.000301

SCF Convergence by DM+H criterion
max |DM_out - DM_in|         :     0.0000572744
max |H_out - H_in|      (eV) :     0.0003008458
SCF cycle converged after 16 iterations

Using DM_out to compute the final energy and forces
No. of atoms with KB's overlaping orbs in proc 0. Max # of overlaps:       4      26

siesta: E_KS(eV) =             -898.4801

siesta: Atomic forces (eV/Ang):
----------------------------------------
   Tot   -0.000390   -0.001703   -0.000975
----------------------------------------
   Max    0.363353
   Res    0.151439    sqrt( Sum f_i^2 / 3N )
----------------------------------------
   Max    0.363353    constrained

Stress tensor Voigt[x,y,z,yz,xz,xy] (kbar):      -14.01       -0.54       -0.35       -0.16        0.04       -0.10
(Free)E + p*V (eV/cell)     -895.4501
Target enthalpy (eV/cell)     -898.5494

siesta: Stress tensor (static) (eV/Ang**3):
        -0.000492    0.000085    0.000102
         0.000085    0.000020    0.000043
         0.000102    0.000043    0.000078

siesta: Pressure (static):          0.21036783  kBar

siesta: Stress tensor (total) (eV/Ang**3):
        -0.008743   -0.000065    0.000025
        -0.000065   -0.000335   -0.000102
         0.000025   -0.000102   -0.000220

siesta: Pressure (total):          4.96562197  kBar

siesta: Temp_ion =   11721.379 K

                     ====================================
                        Begin MD step =     13
                     ====================================

outcell: Unit cell vectors (Ang):
       10.000004    0.000000    0.000000
        0.000000   10.000004    0.000000
        0.000000    0.000000   10.000004

outcell: Cell vector modules (Ang)   :   10.000004   10.000004   10.000004
outcell: Cell angles (23,13,12) (deg):     90.0000     90.0000     90.0000
outcell: Cell volume (Ang**3)        :   1000.0012
<dSpData1D:S at geom step 13
  <sparsity:sparsity for geom step 13
    nrows_g=26 nrows=26 sparsity=1.0000 nnzs=676, refcount: 7>
  <dData1D:(new from dSpData1D) n=676, refcount: 1>
refcount: 1>
new_DM -- step:    13
Re-using DM from previous geometries...
Number of DMs in history: 1
 DM extrapolation coefficients: 
1   1.00000
New DM after history re-use:
<dSpData2D:SpM extrapolated using coords
  <sparsity:sparsity for geom step 13
    nrows_g=26 nrows=26 sparsity=1.0000 nnzs=676, refcount: 9>
  <dData2D:(temp array for extrapolation) n=676 m=1, refcount: 1>
refcount: 1>
Note: For starting DM, Qtot, Tr[D*S] =         14.00000000         13.95616596
No. of atoms with KB's overlaping orbs in proc 0. Max # of overlaps:       4      26

InitMesh: MESH = 90 x 90 x 90 = 729000
InitMesh: Mesh cutoff (required, used) =   200.000   223.865 Ry
New grid distribution [1]: sub = 2

        iscf     Eharris(eV)        E_KS(eV)     FreeEng(eV)     dDmax    Ef(eV) dHmax(eV)
   scf:    1     -897.765947     -898.225142     -898.292318  0.113872 -5.908199  0.882835
   scf:    2     -896.251993     -897.648666     -897.656983  0.713713 -6.650885  1.090994
   scf:    3     -898.290414     -898.011478     -898.060144  0.219953 -6.250836  0.470448
   scf:    4     -897.630952     -897.833071     -897.863007  0.124476 -6.312139  0.629377
   scf:    5     -896.635056     -897.949589     -897.986351  0.948406 -6.462086  0.537352
   scf:    6     -898.023829     -897.987339     -898.028481  0.028115 -6.424940  0.500966
   scf:    7     -896.652620     -897.919178     -897.957868  0.863321 -6.439221  0.555673
   scf:    8     -897.994502     -897.957398     -898.000136  0.026690 -6.438356  0.521436
   scf:    9     -898.108908     -898.036082     -898.086658  0.060805 -6.443691  0.445359
   scf:   10     -898.276178     -898.256565     -898.325880  0.351494 -6.435672  0.019459
   scf:   11     -898.096699     -898.200093     -898.265239  0.169778 -6.438373  0.224047
   scf:   12     -898.275558     -898.248535     -898.317408  0.114607 -6.438752  0.085470
   scf:   13     -898.183654     -898.220880     -898.287692  0.076742 -6.436033  0.178241
   scf:   14     -898.259077     -898.257001     -898.326292  0.144872 -6.443301  0.012971
   scf:   15     -898.256175     -898.256674     -898.325983  0.010178 -6.442694  0.015964
   scf:   16     -898.256604     -898.256640     -898.325950  0.000766 -6.442528  0.016904
   scf:   17     -898.257130     -898.257025     -898.326308  0.012992 -6.446423  0.009330
   scf:   18     -898.257039     -898.257033     -898.326311  0.001372 -6.448069  0.007247
   scf:   19     -898.257047     -898.257044     -898.326325  0.002054 -6.452460  0.001713
   scf:   20     -898.257047     -898.257046     -898.326325  0.000344 -6.452902  0.001342
   scf:   21     -898.257044     -898.257045     -898.326326  0.000526 -6.452894  0.000942
   scf:   22     -898.257045     -898.257045     -898.326326  0.000054 -6.452834  0.001109
   scf:   23     -898.257045     -898.257045     -898.326326  0.000028 -6.452751  0.001097
   scf:   24     -898.257045     -898.257045     -898.326326  0.000058 -6.452561  0.000754

SCF Convergence by DM+H criterion
max |DM_out - DM_in|         :     0.0000583732
max |H_out - H_in|      (eV) :     0.0007543927
SCF cycle converged after 24 iterations

Using DM_out to compute the final energy and forces
No. of atoms with KB's overlaping orbs in proc 0. Max # of overlaps:       4      26

siesta: E_KS(eV) =             -898.2570

siesta: Atomic forces (eV/Ang):
----------------------------------------
   Tot   -0.000626   -0.000330   -0.000759
----------------------------------------
   Max    2.014219
   Res    0.960067    sqrt( Sum f_i^2 / 3N )
----------------------------------------
   Max    2.014219    constrained

Stress tensor Voigt[x,y,z,yz,xz,xy] (kbar):      -12.98       -0.23        0.41        0.32        1.10        0.77
(Free)E + p*V (eV/cell)     -895.6635
Target enthalpy (eV/cell)     -898.3263

siesta: Stress tensor (static) (eV/Ang**3):
         0.000179    0.000718    0.000884
         0.000718    0.000262    0.000418
         0.000884    0.000418    0.000661

siesta: Pressure (static):         -0.58856480  kBar

siesta: Stress tensor (total) (eV/Ang**3):
        -0.008101    0.000481    0.000688
         0.000481   -0.000144    0.000201
         0.000688    0.000201    0.000256

siesta: Pressure (total):          4.26636244  kBar

siesta: Temp_ion =   11189.215 K

                     ====================================
                        Begin MD step =     14
                     ====================================

outcell: Unit cell vectors (Ang):
       10.000004    0.000000    0.000000
        0.000000   10.000004    0.000000
        0.000000    0.000000   10.000004

outcell: Cell vector modules (Ang)   :   10.000004   10.000004   10.000004
outcell: Cell angles (23,13,12) (deg):     90.0000     90.0000     90.0000
outcell: Cell volume (Ang**3)        :   1000.0012
<dSpData1D:S at geom step 14
  <sparsity:sparsity for geom step 14
    nrows_g=26 nrows=26 sparsity=1.0000 nnzs=676, refcount: 7>
  <dData1D:(new from dSpData1D) n=676, refcount: 1>
refcount: 1>
new_DM -- step:    14
Re-using DM from previous geometries...
Number of DMs in history: 1
 DM extrapolation coefficients: 
1   1.00000
New DM after history re-use:
<dSpData2D:SpM extrapolated using coords
  <sparsity:sparsity for geom step 14
    nrows_g=26 nrows=26 sparsity=1.0000 nnzs=676, refcount: 9>
  <dData2D:(temp array for extrapolation) n=676 m=1, refcount: 1>
refcount: 1>
Note: For starting DM, Qtot, Tr[D*S] =         14.00000000         13.97059274
No. of atoms with KB's overlaping orbs in proc 0. Max # of overlaps:       4      26

InitMesh: MESH = 90 x 90 x 90 = 729000
InitMesh: Mesh cutoff (required, used) =   200.000   223.865 Ry
New grid distribution [1]: sub = 2

        iscf     Eharris(eV)        E_KS(eV)     FreeEng(eV)     dDmax    Ef(eV) dHmax(eV)
   scf:    1     -897.229385     -897.856194     -897.919725  0.180322 -6.259945  0.772061
   scf:    2     -895.544454     -897.231428     -897.232659  0.802379 -6.889940  1.371540
   scf:    3     -897.845738     -897.573389     -897.613844  0.174192 -6.498871  0.562813
   scf:    4     -897.246196     -897.417057     -897.439885  0.096168 -6.556888  0.691852
   scf:    5     -897.017288     -897.786223     -897.840294  0.844894 -6.633827  0.350717
   scf:    6     -897.556970     -897.679469     -897.721319  0.098174 -6.608479  0.474105
   scf:    7     -897.996738     -897.898211     -897.964557  0.274143 -6.610122  0.136353
   scf:    8     -897.546253     -897.822925     -897.885787  0.352702 -6.616914  0.290066
   scf:    9     -897.894287     -897.861019     -897.926831  0.054671 -6.616945  0.223768
   scf:   10     -897.753844     -897.811304     -897.873230  0.069065 -6.613806  0.308560
   scf:   11     -897.822815     -897.908205     -897.975737  0.335488 -6.611826  0.096687
   scf:   12     -897.902959     -897.905654     -897.972870  0.009414 -6.611653  0.108054
   scf:   13     -897.911337     -897.917679     -897.986958  0.106053 -6.618636  0.019766
   scf:   14     -897.918047     -897.917880     -897.987136  0.003570 -6.614056  0.025113
   scf:   15     -897.918325     -897.918217     -897.987394  0.011815 -6.618903  0.017236
   scf:   16     -897.918034     -897.918142     -897.987352  0.004393 -6.611514  0.026592
   scf:   17     -897.918176     -897.918199     -897.987382  0.005276 -6.624683  0.011551
   scf:   18     -897.918174     -897.918190     -897.987387  0.001919 -6.628499  0.006885
   scf:   19     -897.918230     -897.918212     -897.987397  0.001082 -6.628710  0.007075
   scf:   20     -897.918239     -897.918227     -897.987402  0.001173 -6.628926  0.004985
   scf:   21     -897.918229     -897.918228     -897.987403  0.000404 -6.629039  0.005280
   scf:   22     -897.918226     -897.918230     -897.987405  0.001633 -6.630658  0.002477
   scf:   23     -897.918234     -897.918232     -897.987406  0.000181 -6.631281  0.002149
   scf:   24     -897.918227     -897.918230     -897.987409  0.000865 -6.632923  0.001872
   scf:   25     -897.918229     -897.918230     -897.987409  0.000042 -6.632918  0.001798
   scf:   26     -897.918233     -897.918231     -897.987409  0.000221 -6.632308  0.000394

SCF Convergence by DM+H criterion
max |DM_out - DM_in|         :     0.0002214340
max |H_out - H_in|      (eV) :     0.0003939109
SCF cycle converged after 26 iterations

Using DM_out to compute the final energy and forces
No. of atoms with KB's overlaping orbs in proc 0. Max # of overlaps:       4      26

siesta: E_KS(eV) =             -897.9182

siesta: Atomic forces (eV/Ang):
----------------------------------------
   Tot    0.001225    0.000506    0.000384
----------------------------------------
   Max    2.762552
   Res    1.301477    sqrt( Sum f_i^2 / 3N )
----------------------------------------
   Max    2.762552    constrained

Stress tensor Voigt[x,y,z,yz,xz,xy] (kbar):      -13.46       -0.01        1.09        0.74        1.82        1.42
(Free)E + p*V (eV/cell)     -895.4120
Target enthalpy (eV/cell)     -897.9874

siesta: Stress tensor (static) (eV/Ang**3):
        -0.000379    0.001064    0.001232
         0.001064    0.000355    0.000611
         0.001232    0.000611    0.000975

siesta: Pressure (static):         -0.50831320  kBar

siesta: Stress tensor (total) (eV/Ang**3):
        -0.008399    0.000887    0.001134
         0.000887   -0.000007    0.000464
         0.001134    0.000464    0.000680

siesta: Pressure (total):          4.12619484  kBar

siesta: Temp_ion =   10333.903 K

                     ====================================
                        Begin MD step =     15
                     ====================================

outcell: Unit cell vectors (Ang):
       10.000004    0.000000    0.000000
        0.000000   10.000004    0.000000
        0.000000    0.000000   10.000004

outcell: Cell vector modules (Ang)   :   10.000004   10.000004   10.000004
outcell: Cell angles (23,13,12) (deg):     90.0000     90.0000     90.0000
outcell: Cell volume (Ang**3)        :   1000.0012
<dSpData1D:S at geom step 15
  <sparsity:sparsity for geom step 15
    nrows_g=26 nrows=26 sparsity=1.0000 nnzs=676, refcount: 7>
  <dData1D:(new from dSpData1D) n=676, refcount: 1>
refcount: 1>
new_DM -- step:    15
Re-using DM from previous geometries...
Number of DMs in history: 1
 DM extrapolation coefficients: 
1   1.00000
New DM after history re-use:
<dSpData2D:SpM extrapolated using coords
  <sparsity:sparsity for geom step 15
    nrows_g=26 nrows=26 sparsity=1.0000 nnzs=676, refcount: 9>
  <dData2D:(temp array for extrapolation) n=676 m=1, refcount: 1>
refcount: 1>
No. of atoms with KB's overlaping orbs in proc 0. Max # of overlaps:       4      26

InitMesh: MESH = 90 x 90 x 90 = 729000
InitMesh: Mesh cutoff (required, used) =   200.000   223.865 Ry
New grid distribution [1]: sub = 2

        iscf     Eharris(eV)        E_KS(eV)     FreeEng(eV)     dDmax    Ef(eV) dHmax(eV)
   scf:    1     -896.755650     -897.492808     -897.548121  0.224012 -6.665272  0.458910
   scf:    2     -894.552843     -896.734952     -896.735096  0.786024 -6.806173  1.842226
   scf:    3     -897.843216     -897.440245     -897.501493  0.326864 -6.695810  0.454984
   scf:    4     -897.547882     -897.497595     -897.562817  0.056783 -6.692816  0.378299
   scf:    5     -897.483081     -897.490684     -897.555353  0.009923 -6.724561  0.341730
   scf:    6     -897.540654     -897.586123     -897.653444  0.253120 -6.744491  0.055468
   scf:    7     -897.572469     -897.580015     -897.646171  0.025368 -6.746529  0.087131
   scf:    8     -897.521483     -897.575160     -897.644363  0.147327 -6.742257  0.092003
   scf:    9     -897.575134     -897.575149     -897.644352  0.001211 -6.742610  0.091266
   scf:   10     -897.590969     -897.589939     -897.658640  0.076139 -6.741736  0.004754
   scf:   11     -897.589929     -897.589935     -897.658648  0.001286 -6.742130  0.003578
   scf:   12     -897.589897     -897.589918     -897.658654  0.001163 -6.742507  0.003129
   scf:   13     -897.589878     -897.589899     -897.658654  0.000857 -6.742817  0.002510
   scf:   14     -897.589928     -897.589914     -897.658656  0.000724 -6.743051  0.001273
   scf:   15     -897.589914     -897.589914     -897.658656  0.000012 -6.743101  0.001092
   scf:   16     -897.589916     -897.589915     -897.658656  0.000235 -6.743338  0.000518

SCF Convergence by DM+H criterion
max |DM_out - DM_in|         :     0.0002352094
max |H_out - H_in|      (eV) :     0.0005179950
SCF cycle converged after 16 iterations

Using DM_out to compute the final energy and forces
No. of atoms with KB's overlaping orbs in proc 0. Max # of overlaps:       4      26

siesta: E_KS(eV) =             -897.5899

siesta: Atomic forces (eV/Ang):
----------------------------------------
   Tot   -0.001623    0.001157    0.001084
----------------------------------------
   Max    3.051900
   Res    1.404045    sqrt( Sum f_i^2 / 3N )
----------------------------------------
   Max    3.051900    constrained

Stress tensor Voigt[x,y,z,yz,xz,xy] (kbar):      -15.29       -0.05        1.37        0.90        1.94        1.66
(Free)E + p*V (eV/cell)     -894.7506
Target enthalpy (eV/cell)     -897.6587

siesta: Stress tensor (static) (eV/Ang**3):
        -0.001951    0.001143    0.001193
         0.001143    0.000262    0.000601
         0.001193    0.000601    0.000979

siesta: Pressure (static):          0.37901394  kBar

siesta: Stress tensor (total) (eV/Ang**3):
        -0.009545    0.001036    0.001211
         0.001036   -0.000034    0.000563
         0.001211    0.000563    0.000854

siesta: Pressure (total):          4.65925683  kBar

siesta: Temp_ion =    9477.534 K

                     ====================================
                        Begin MD step =     16
                     ====================================

outcell: Unit cell vectors (Ang):
       10.000004    0.000000    0.000000
        0.000000   10.000004    0.000000
        0.000000    0.000000   10.000004

outcell: Cell vector modules (Ang)   :   10.000004   10.000004   10.000004
outcell: Cell angles (23,13,12) (deg):     90.0000     90.0000     90.0000
outcell: Cell volume (Ang**3)        :   1000.0012
<dSpData1D:S at geom step 16
  <sparsity:sparsity for geom step 16
    nrows_g=26 nrows=26 sparsity=1.0000 nnzs=676, refcount: 7>
  <dData1D:(new from dSpData1D) n=676, refcount: 1>
refcount: 1>
new_DM -- step:    16
Re-using DM from previous geometries...
[...]
   scf:   11     -898.040939     -898.040953     -898.110267  0.001761 -5.373350  0.003002
   scf:   12     -898.040958     -898.040959     -898.110273  0.001780 -5.373853  0.002756
   scf:   13     -898.040959     -898.040959     -898.110274  0.000419 -5.374078  0.001071
   scf:   14     -898.040959     -898.040959     -898.110274  0.000007 -5.374101  0.001029
   scf:   15     -898.040959     -898.040959     -898.110274  0.000138 -5.374299  0.000620

SCF Convergence by DM+H criterion
max |DM_out - DM_in|         :     0.0001379242
max |H_out - H_in|      (eV) :     0.0006201259
SCF cycle converged after 15 iterations

Using DM_out to compute the final energy and forces
No. of atoms with KB's overlaping orbs in proc 0. Max # of overlaps:       4      18

siesta: E_KS(eV) =             -898.0410

siesta: Atomic forces (eV/Ang):
----------------------------------------
   Tot   -0.002556    0.000788    0.004974
----------------------------------------
   Max    5.822536
   Res    2.932548    sqrt( Sum f_i^2 / 3N )
----------------------------------------
   Max    5.822536    constrained

Stress tensor Voigt[x,y,z,yz,xz,xy] (kbar):       -4.27       -3.55      -20.36       -7.64       -0.87       -1.21
(Free)E + p*V (eV/cell)     -892.2451
Target enthalpy (eV/cell)     -898.1103

siesta: Stress tensor (static) (eV/Ang**3):
        -0.000335    0.000181    0.000415
         0.000181   -0.001640   -0.003689
         0.000415   -0.003689   -0.008292

siesta: Pressure (static):          5.48321982  kBar

siesta: Stress tensor (total) (eV/Ang**3):
        -0.002666   -0.000757   -0.000544
        -0.000757   -0.002218   -0.004768
        -0.000544   -0.004768   -0.012711

siesta: Pressure (total):          9.39696113  kBar

siesta: Temp_ion =   10395.242 K

                     ====================================
                        Begin MD step =    198
                     ====================================

outcell: Unit cell vectors (Ang):
       10.000004    0.000000    0.000000
        0.000000   10.000004    0.000000
        0.000000    0.000000   10.000004

outcell: Cell vector modules (Ang)   :   10.000004   10.000004   10.000004
outcell: Cell angles (23,13,12) (deg):     90.0000     90.0000     90.0000
outcell: Cell volume (Ang**3)        :   1000.0012
<dSpData1D:S at geom step 198
  <sparsity:sparsity for geom step 198
    nrows_g=26 nrows=26 sparsity=.5740 nnzs=388, refcount: 7>
  <dData1D:(new from dSpData1D) n=388, refcount: 1>
refcount: 1>
new_DM -- step:   198
Re-using DM from previous geometries...
Number of DMs in history: 1
 DM extrapolation coefficients: 
1   1.00000
New DM after history re-use:
<dSpData2D:SpM extrapolated using coords
  <sparsity:sparsity for geom step 198
    nrows_g=26 nrows=26 sparsity=.5740 nnzs=388, refcount: 9>
  <dData2D:(temp array for extrapolation) n=388 m=1, refcount: 1>
refcount: 1>
Note: For starting DM, Qtot, Tr[D*S] =         14.00000000         14.06171350
No. of atoms with KB's overlaping orbs in proc 0. Max # of overlaps:       4      18

InitMesh: MESH = 90 x 90 x 90 = 729000
InitMesh: Mesh cutoff (required, used) =   200.000   223.865 Ry
New grid distribution [1]: sub = 2

        iscf     Eharris(eV)        E_KS(eV)     FreeEng(eV)     dDmax    Ef(eV) dHmax(eV)
   scf:    1     -898.231097     -896.977965     -897.047270  0.054737 -6.424322  0.910782
   scf:    2     -896.933875     -896.976023     -897.044021  0.103518 -5.586907  0.353093
   scf:    3     -897.008149     -896.994410     -897.063334  0.041802 -5.797746  0.126673
   scf:    4     -896.995864     -896.998895     -897.068180  0.061218 -5.784277  0.090334
   scf:    5     -896.979203     -896.993655     -897.062472  0.068596 -5.672839  0.138458
   scf:    6     -897.001891     -896.998797     -897.068026  0.031812 -5.698313  0.074405
   scf:    7     -896.999991     -897.000008     -897.069323  0.024825 -5.706055  0.004451
   scf:    8     -897.000011     -897.000011     -897.069326  0.001052 -5.704684  0.002218
   scf:    9     -897.000010     -897.000011     -897.069326  0.000713 -5.704117  0.002091
   scf:   10     -897.000011     -897.000011     -897.069326  0.000116 -5.703952  0.002038
   scf:   11     -897.000011     -897.000011     -897.069326  0.000435 -5.703536  0.000594
   scf:   12     -897.000012     -897.000011     -897.069326  0.000121 -5.703575  0.000595

SCF Convergence by DM+H criterion
max |DM_out - DM_in|         :     0.0001205439
max |H_out - H_in|      (eV) :     0.0005954125
SCF cycle converged after 12 iterations

Using DM_out to compute the final energy and forces
No. of atoms with KB's overlaping orbs in proc 0. Max # of overlaps:       4      18

siesta: E_KS(eV) =             -897.0000

siesta: Atomic forces (eV/Ang):
----------------------------------------
   Tot   -0.003634    0.003724   -0.008608
----------------------------------------
   Max   12.338358
   Res    5.907669    sqrt( Sum f_i^2 / 3N )
----------------------------------------
   Max   12.338358    constrained

Stress tensor Voigt[x,y,z,yz,xz,xy] (kbar):       -4.72       -4.27      -21.45       -8.61       -3.51       -2.66
(Free)E + p*V (eV/cell)     -890.7368
Target enthalpy (eV/cell)     -897.0693

siesta: Stress tensor (static) (eV/Ang**3):
        -0.000571   -0.000824   -0.001516
        -0.000825   -0.002093   -0.004149
        -0.001516   -0.004149   -0.008271

siesta: Pressure (static):          5.84024032  kBar

siesta: Stress tensor (total) (eV/Ang**3):
        -0.002944   -0.001658   -0.002188
        -0.001658   -0.002665   -0.005375
        -0.002188   -0.005375   -0.013389

siesta: Pressure (total):         10.14588920  kBar

siesta: Temp_ion =    8599.915 K

                     ====================================
                        Begin MD step =    199
                     ====================================

outcell: Unit cell vectors (Ang):
       10.000004    0.000000    0.000000
        0.000000   10.000004    0.000000
        0.000000    0.000000   10.000004

outcell: Cell vector modules (Ang)   :   10.000004   10.000004   10.000004
outcell: Cell angles (23,13,12) (deg):     90.0000     90.0000     90.0000
outcell: Cell volume (Ang**3)        :   1000.0012
<dSpData1D:S at geom step 199
  <sparsity:sparsity for geom step 199
    nrows_g=26 nrows=26 sparsity=.5740 nnzs=388, refcount: 7>
  <dData1D:(new from dSpData1D) n=388, refcount: 1>
refcount: 1>
new_DM -- step:   199
Re-using DM from previous geometries...
Number of DMs in history: 1
 DM extrapolation coefficients: 
1   1.00000
New DM after history re-use:
<dSpData2D:SpM extrapolated using coords
  <sparsity:sparsity for geom step 199
    nrows_g=26 nrows=26 sparsity=.5740 nnzs=388, refcount: 9>
  <dData2D:(temp array for extrapolation) n=388 m=1, refcount: 1>
refcount: 1>
Note: For starting DM, Qtot, Tr[D*S] =         14.00000000         13.95822103
No. of atoms with KB's overlaping orbs in proc 0. Max # of overlaps:       4      18

InitMesh: MESH = 90 x 90 x 90 = 729000
InitMesh: Mesh cutoff (required, used) =   200.000   223.865 Ry
New grid distribution [1]: sub = 2

        iscf     Eharris(eV)        E_KS(eV)     FreeEng(eV)     dDmax    Ef(eV) dHmax(eV)
   scf:    1     -898.978597     -898.082207     -898.151521  0.051004 -5.761136  0.314850
   scf:    2     -898.079905     -898.087395     -898.156651  0.020442 -5.919577  0.215464
   scf:    3     -898.095213     -898.092666     -898.161973  0.011195 -5.849681  0.159363
   scf:    4     -898.087337     -898.091285     -898.160469  0.029150 -5.898365  0.135530
   scf:    5     -898.091092     -898.092519     -898.161824  0.028594 -5.965972  0.073242
   scf:    6     -898.092107     -898.092356     -898.161670  0.004711 -5.959100  0.082745
   scf:    7     -898.093206     -898.092922     -898.162236  0.002964 -5.987585  0.002894
   scf:    8     -898.092923     -898.092922     -898.162237  0.000098 -5.986712  0.001036
   scf:    9     -898.092922     -898.092922     -898.162237  0.000275 -5.987034  0.000642

SCF Convergence by DM+H criterion
max |DM_out - DM_in|         :     0.0002746551
max |H_out - H_in|      (eV) :     0.0006418788
SCF cycle converged after 9 iterations

Using DM_out to compute the final energy and forces
No. of atoms with KB's overlaping orbs in proc 0. Max # of overlaps:       4      18

siesta: E_KS(eV) =             -898.0929

siesta: Atomic forces (eV/Ang):
----------------------------------------
   Tot   -0.003808   -0.000454    0.003817
----------------------------------------
   Max    4.378530
   Res    2.240641    sqrt( Sum f_i^2 / 3N )
----------------------------------------
   Max    4.378530    constrained

Stress tensor Voigt[x,y,z,yz,xz,xy] (kbar):       -3.69       -1.95       -7.64       -2.80       -1.54       -1.83
(Free)E + p*V (eV/cell)     -895.4002
Target enthalpy (eV/cell)     -898.1622

siesta: Stress tensor (static) (eV/Ang**3):
        -0.000114   -0.000545   -0.001006
        -0.000545   -0.000666   -0.000863
        -0.001006   -0.000862   -0.000836

siesta: Pressure (static):          0.86324851  kBar

siesta: Stress tensor (total) (eV/Ang**3):
        -0.002305   -0.001142   -0.000963
        -0.001142   -0.001214   -0.001751
        -0.000963   -0.001751   -0.004766

siesta: Pressure (total):          4.42528342  kBar

siesta: Temp_ion =   10467.332 K

                     ====================================
                        Begin MD step =    200
                     ====================================

outcell: Unit cell vectors (Ang):
       10.000004    0.000000    0.000000
        0.000000   10.000004    0.000000
        0.000000    0.000000   10.000004

outcell: Cell vector modules (Ang)   :   10.000004   10.000004   10.000004
outcell: Cell angles (23,13,12) (deg):     90.0000     90.0000     90.0000
outcell: Cell volume (Ang**3)        :   1000.0012
<dSpData1D:S at geom step 200
  <sparsity:sparsity for geom step 200
    nrows_g=26 nrows=26 sparsity=.5740 nnzs=388, refcount: 7>
  <dData1D:(new from dSpData1D) n=388, refcount: 1>
refcount: 1>
new_DM -- step:   200
Re-using DM from previous geometries...
Number of DMs in history: 1
 DM extrapolation coefficients: 
1   1.00000
New DM after history re-use:
<dSpData2D:SpM extrapolated using coords
  <sparsity:sparsity for geom step 200
    nrows_g=26 nrows=26 sparsity=.5740 nnzs=388, refcount: 9>
  <dData2D:(temp array for extrapolation) n=388 m=1, refcount: 1>
refcount: 1>
Note: For starting DM, Qtot, Tr[D*S] =         14.00000000         13.88444249
No. of atoms with KB's overlaping orbs in proc 0. Max # of overlaps:       4      18

InitMesh: MESH = 90 x 90 x 90 = 729000
InitMesh: Mesh cutoff (required, used) =   200.000   223.865 Ry
New grid distribution [1]: sub = 2

        iscf     Eharris(eV)        E_KS(eV)     FreeEng(eV)     dDmax    Ef(eV) dHmax(eV)
   scf:    1     -898.608894     -898.157423     -898.226697  0.050123 -5.329015  0.891152
   scf:    2     -897.958734     -898.098122     -898.162309  0.202849 -6.183266  0.484359
   scf:    3     -898.158050     -898.130848     -898.197673  0.054334 -6.113333  0.438129
   scf:    4     -898.128089     -898.157789     -898.226734  0.175895 -6.212334  0.137117
   scf:    5     -897.923871     -898.094615     -898.157885  0.242615 -6.137698  0.273457
   scf:    6     -898.139137     -898.118143     -898.183513  0.037304 -6.161235  0.240203
   scf:    7     -898.153525     -898.163251     -898.232527  0.172673 -6.213254  0.026681
   scf:    8     -898.162746     -898.163554     -898.232857  0.024731 -6.210676  0.012521
   scf:    9     -898.163531     -898.163543     -898.232844  0.000352 -6.210805  0.012747
   scf:   10     -898.163713     -898.163701     -898.233015  0.008808 -6.214591  0.000971
   scf:   11     -898.163701     -898.163702     -898.233016  0.000879 -6.214847  0.000700
   scf:   12     -898.163702     -898.163702     -898.233017  0.000388 -6.214734  0.000465
   scf:   13     -898.163703     -898.163702     -898.233017  0.000208 -6.214968  0.000277

SCF Convergence by DM+H criterion
max |DM_out - DM_in|         :     0.0002076856
max |H_out - H_in|      (eV) :     0.0002771914
SCF cycle converged after 13 iterations

Using DM_out to compute the final energy and forces
No. of atoms with KB's overlaping orbs in proc 0. Max # of overlaps:       4      18

siesta: E_KS(eV) =             -898.1637

siesta: Atomic forces (eV/Ang):
----------------------------------------
   Tot    0.000011   -0.000238    0.006612
----------------------------------------
   Max    3.564401
   Res    1.739123    sqrt( Sum f_i^2 / 3N )
----------------------------------------
   Max    3.564401    constrained

Stress tensor Voigt[x,y,z,yz,xz,xy] (kbar):       -3.11       -0.07        1.51        1.26       -1.01       -1.48
(Free)E + p*V (eV/cell)     -897.8833
Target enthalpy (eV/cell)     -898.2330

siesta: Stress tensor (static) (eV/Ang**3):
         0.000228   -0.000169   -0.000606
        -0.000169    0.001192    0.002522
        -0.000606    0.002522    0.005649

siesta: Pressure (static):         -3.77525809  kBar

siesta: Stress tensor (total) (eV/Ang**3):
        -0.001942   -0.000921   -0.000631
        -0.000921   -0.000046    0.000789
        -0.000631    0.000789    0.000939

siesta: Pressure (total):          0.56025001  kBar

siesta: Temp_ion =   10888.621 K

coxmol: Writing XMOL coordinates into file xoc.xyz                                                                                                                                                                                                                             

siesta: Program's energy decomposition (eV):
siesta: Ebs     =      -195.903598
siesta: Eions   =      1581.702395
siesta: Ena     =       338.681161
siesta: Ekin    =       619.926506
siesta: Enl     =       -86.488052
siesta: Eso     =         0.000000
siesta: Edftu   =         0.000000
siesta: DEna    =        13.349341
siesta: DUscf   =         0.931803
siesta: DUext   =         0.000000
siesta: Ex      =      -189.167955
siesta: Ec      =       -13.694111
siesta: Exc     =      -202.862066
siesta: EbV     =         0.000000
siesta: eta*DQ  =         0.000000
siesta: Emadel  =         0.000000
siesta: Emeta   =         0.000000
siesta: Emolmec =         0.000000
siesta: Ekinion =         4.222389
siesta: Eharris =      -893.941313
siesta: Etot    =      -893.941313
siesta: FreeEng =      -894.010628

siesta: Final energy (eV):
siesta:  Band Struct. =    -195.903598
siesta:       Kinetic =     619.926506
siesta:       Hartree =     837.021498
siesta:         Edftu =       0.000000
siesta:       Eso     =       0.000000
siesta:    Ext. field =       0.000000
siesta:         Exch. =    -189.167955
siesta:         Corr. =     -13.694111
siesta:     Bulk bias =       0.000000
siesta:   Exch.-corr. =    -202.862066
siesta:  Ion-electron =   -2231.367111
siesta:       Ion-ion =      79.117470
siesta:       Ekinion =       4.222389
siesta: D3 dispersion =       0.000000
siesta:         Total =    -893.941313
siesta:         Fermi =      -6.214968

siesta: Atomic forces (eV/Ang):
siesta:      1   -0.679819    1.410192    3.564401
siesta:      2    0.679345   -1.410387   -3.558297
siesta:      3   -0.337657   -0.938837   -1.420230
siesta:      4    0.338143    0.938795    1.420737
siesta: ----------------------------------------
siesta:    Tot    0.000011   -0.000238    0.006612

siesta: Stress tensor (static) (eV/Ang**3):
siesta:     0.000228   -0.000169   -0.000606
siesta:    -0.000169    0.001192    0.002522
siesta:    -0.000606    0.002522    0.005649

siesta: Cell volume =       1000.001196 Ang**3

siesta: Pressure (static):
siesta:                Solid            Molecule  Units
siesta:          -0.00002566          0.00000006  Ry/Bohr**3
siesta:          -0.00235633          0.00000586  eV/Ang**3
siesta:          -3.77525809          0.00939229  kBar
(Free)E+ p_basis*V_orbitals  =        -897.474308
(Free)Eharris+ p_basis*V_orbitals  =        -897.474308

siesta: Electric dipole (a.u.)  =   -0.481194    0.000474   -1.217080
siesta: Electric dipole (Debye) =   -1.223073    0.001205   -3.093509

cite: Please see "xoc.bib" for an exhaustive BiBTeX file.
cite: Please clearly indicate Siesta version in published work: 5.2.1
cite: This calculation has made use of the following articles
cite: which are encouraged to be cited in a published work.
        Primary SIESTA paper
          DOI: www.doi.org/10.1088/0953-8984/14/11/302


timer: Elapsed wall time (sec) =     581.670
timer: CPU execution times (sec):

Routine            Calls   Time/call    Tot.time        %
siesta                 1    2630.152    2630.152   100.00
Setup                  1       1.092       1.092     0.04
bands                  1       0.000       0.000     0.00
KSV_init               1       0.000       0.000     0.00
IterGeom             200      13.145    2629.059    99.96
geom_init            200       0.194      38.856     1.48
state_init           200       0.001       0.145     0.01
hsparse              200       0.000       0.008     0.00
overlap              200       0.000       0.088     0.00
Setup_H0             200       0.089      17.717     0.67
naefs                400       0.000       0.007     0.00
dnaefs               400       0.000       0.004     0.00
MolMec               400       0.000       0.000     0.00
kinefsm              400       0.000       0.110     0.00
nlefsm               400       0.002       0.626     0.02
DHSCF_Init           200       0.086      17.114     0.65
DHSCF1               200       0.008       1.550     0.06
InitMesh             200       0.008       1.547     0.06
INITMESH             200       0.000       0.001     0.00
DHSCF2               200       0.078      15.564     0.59
REMESH               200       0.003       0.604     0.02
REORD              12934       0.002      25.003     0.95
PHION                200       0.037       7.488     0.28
COMM_BSC           20468       0.002      32.550     1.24
POISON              5167       0.150     776.629    29.53
fft                10334       0.054     556.883    21.17
setup_H             4767       0.539    2571.077    97.75
DHSCF               4967       0.524    2601.747    98.92
DHSCF3              4967       0.521    2588.640    98.42
rhoofd              4967       0.033     165.778     6.30
XC                  4967       0.283    1403.959    53.38
GXC-CellXC          4967       0.270    1341.989    51.02
gridxc@cellXC       4967       0.270    1341.879    51.02
vmat                4967       0.004      19.694     0.75
IterSCF             4567       0.560    2555.742    97.17
compute_dm          4567       0.001       4.967     0.19
diagon              4567       0.001       4.904     0.19
r-eigvec            4567       0.001       4.257     0.16
r-buildHS           4567       0.000       0.011     0.00
rdiag               4567       0.001       4.229     0.16
rdiag1              4567       0.000       0.021     0.00
rdiag2              4567       0.000       0.057     0.00
rdiag3              4567       0.001       3.911     0.15
rdiag4              4567       0.000       0.171     0.01
r-buildD            4567       0.000       0.427     0.02
MIXER               4367       0.000       0.133     0.01
PostSCF              200       0.172      34.305     1.30
FINAL_HF             200       0.171      34.300     1.30
DHSCF4               200       0.065      13.094     0.50
dfscf                200       0.049       9.702     0.37
overfsm              200       0.000       0.030     0.00
writeHSX             200       0.000       0.020     0.00
state_analysis       200       0.000       0.029     0.00
siesta_move          200       0.000       0.057     0.00
Analysis               1       0.000       0.000     0.00
optical                1       0.000       0.000     0.00
  

>> End of run:  25-MAR-2025  17:19:27
Job completed
Job completed
