Executable      : siesta
Version         : 5.2.1
Architecture    : x86_64
Compiler version: GNU-13.3.0
Compiler flags  : -march=nocona -mtune=haswell -ftree-vectorize -fPIC -fstack-protector-strong -fno-plt -O2 -ffunction-sections -pipe -isystem <prefix>/include -I<prefix>/_build_env/include -fdebug-prefix-map=<prefix>/work=/usr/local/src/conda/siesta-5.2.1 -fdebug-prefix-map=<prefix>=/usr/local/src/conda-prefix -I<prefix>/lib -fallow-argument-mismatch -O3
Parallelisations: none
NetCDF support
NetCDF-4 support
Lua support
DFT-D3 support

Runtime information:
* Directory : /home/samba/homes/convidat/Simulacions/3
* Running in serial mode.
>> Start of run:  24-MAR-2025  16:27:51

                           *********************** 
                           *  WELCOME TO SIESTA  * 
                           *********************** 

 NOTE: Siesta V5 introduces some new defaults for basis-set generation
 NOTE: which might lead to slightly different numerical results.
 NOTE: Please see the manual for full details and compatibility measures.


reinit: Reading from file xoc.fdf

reinit: -----------------------------------------------------------------------
reinit: System Name: H2 + O2 -> H2O2 reaction
reinit: -----------------------------------------------------------------------
reinit: System Label: xoc
reinit: -----------------------------------------------------------------------

initatom: Reading input for the pseudopotentials and atomic orbitals ----------
Species number:   1 Atomic number:    8 Label: O
Species number:   2 Atomic number:    1 Label: H

Ground state valence configuration (from tables):   2s02  2p04  3d00  4f00
Ground state valence configuration (from tables):   1s01  2p00  3d00  4f00

---- Processing specs for species: O
Reading pseudopotential information in formatted form from:
  O.psf

---- Processing specs for species: H
Reading pseudopotential information in unformatted form from:
  H.vps

---- Pseudopotential check for O 

Pseudopotential generated from a fully relativistic atomic calculation
There are spin-orbit semi-local pseudopotentials available

Pseudized shells:
2s( 2.00) rc: 1.14
2p( 4.00) rc: 1.14
3d( 0.00) rc: 1.14
4f( 0.00) rc: 1.14
Valence configuration for ps generation: (assumed as above)

---- Pseudopotential check for H 

Pseudized shells:
1s( 1.00) rc: 1.25
2p( 0.00) rc: 1.25
3d( 0.00) rc: 1.25
4f( 0.00) rc: 1.25
Valence configuration for ps generation: (assumed as above)
For O, standard SIESTA heuristics set lmxkb to 3
 (one more than the basis l, including polarization orbitals).
Use PS.lmax or PS.KBprojectors blocks to override.
For H, standard SIESTA heuristics set lmxkb to 2
 (one more than the basis l, including polarization orbitals).
Use PS.lmax or PS.KBprojectors blocks to override.

<basis_specs>
===============================================================================
O                    Z=   8    Mass=  15.999        Charge= 0.17977+309
Lmxo=2 Lmxkb= 3    BasisType=split      Semic=F
L=0  Nsemic=0  Cnfigmx=2
          i=1  nzeta=1  polorb=0  (2s)
            splnorm:   0.15000    
               vcte:    40.000    
               rinn:  -0.90000    
               qcoe:    0.0000    
               qyuk:    0.0000    
               qwid:   0.10000E-01
                rcs:    0.0000    
            lambdas:    1.0000    
L=1  Nsemic=0  Cnfigmx=2
          i=1  nzeta=1  polorb=1  (2p)  (to be polarized perturbatively)
            splnorm:   0.15000    
               vcte:    40.000    
               rinn:  -0.90000    
               qcoe:    0.0000    
               qyuk:    0.0000    
               qwid:   0.10000E-01
                rcs:    0.0000    
            lambdas:    1.0000    
L=2  Nsemic=0  Cnfigmx=3
          i=1  nzeta=0  polorb=0  (3d)  (perturbative polarization orbital) (from 2p)
-------------------------------------------------------------------------------
L=0  Nkbl=1  erefs: 0.17977+309
L=1  Nkbl=1  erefs: 0.17977+309
L=2  Nkbl=1  erefs: 0.17977+309
L=3  Nkbl=1  erefs: 0.17977+309
===============================================================================
</basis_specs>

Using PAO.SplitTailNorm
atom: Called for O                     (Z =   8)
Maximum radius (at nrval) set to   50.00000 8518

read_vps: Pseudopotential generation method:
read_vps: ATM3      Troullier-Martins                       
Valence charge in pseudo generation:    6.00000

read_vps: Pseudopotential includes a core correction:
read_vps: Pseudo-core for xc-correction

xc_check: Exchange-correlation functional:
xc_check: GGA Perdew, Burke & Ernzerhof 1996
V l=0 = -2*Zval/r beyond r=  1.1355
V l=1 = -2*Zval/r beyond r=  1.1355
V l=2 = -2*Zval/r beyond r=  1.1309
V l=3 = -2*Zval/r beyond r=  1.1286
All V_l potentials equal beyond r=  1.1355
This should be close to max(r_c) in ps generation
All pots = -2*Zval/r beyond r=  1.1355
Using small-core scheme (local charge) for Vlocal

VLOCAL_FROM_CHLOCAL: 99.0% of the norm of Vloc inside     33.667 Ry
VLOCAL_FROM_CHLOCAL: 99.9% of the norm of Vloc inside     76.727 Ry
atom: Maximum radius for chlocal:    1.37241
atom: Maximum radius for r*vlocal+2*Zval:    1.25469

KBgen: Kleinman-Bylander projectors: 
GHOST: No ghost state for L =  0
   l= 0   rc=  1.357289   el= -1.759790   Ekb=  9.151830   kbcos=  0.327271
GHOST: No ghost state for L =  1
   l= 1   rc=  1.345038   el= -0.663797   Ekb= -7.991133   kbcos= -0.393963
GHOST: No ghost state for L =  2
   l= 2   rc=  1.779310   el=  0.012956   Ekb= -1.983219   kbcos= -0.003702
GHOST: No ghost state for L =  3
   l= 3   rc=  2.085579   el=  0.019231   Ekb= -0.873623   kbcos= -0.000360

KBgen: Total number of Kleinman-Bylander projectors:  16
atom: -------------------------------------------------------------------------

atom: SANKEY-TYPE ORBITALS:

SPLIT: Orbitals with angular momentum L= 0

SPLIT: Basis orbitals for state 2s

SPLIT: PAO cut-off radius determined from an
SPLIT: energy shift=  0.010000 Ry
Split based on tail norm

   izeta = 1
                 lambda =    1.000000
                     rc =    3.532490
                 energy =   -1.748682
                kinetic =    1.612754
    potential(screened) =   -3.361436
       potential(ionic) =  -11.306460

SPLIT: Orbitals with angular momentum L= 1

SPLIT: Basis orbitals for state 2p

SPLIT: PAO cut-off radius determined from an
SPLIT: energy shift=  0.010000 Ry
Split based on tail norm

   izeta = 1
                 lambda =    1.000000
                     rc =    4.299534
                 energy =   -0.652755
                kinetic =    4.913628
    potential(screened) =   -5.566382
       potential(ionic) =  -13.292903

POLgen: Perturbative polarization orbital with L=  2

POLgen: Polarization orbital for state 2p
Split based on tail norm

   izeta = 1
                     rc =    4.299534
                 energy =    2.258078
                kinetic =    4.298689
    potential(screened) =   -2.040611
       potential(ionic) =   -8.188336
atom: Total number of Sankey-type orbitals:  9

atm_pop: Valence configuration (for local Pseudopot. screening):
 2s( 2.00)                                                            
 2p( 4.00)                                                            
 3d( 0.00)                                                            
Vna: chval, zval:    6.00000   6.00000

Vna:  Cut-off radius for the neutral-atom potential:   4.299534
comcore: Pseudo-core radius Rcore=  1.364142

atom: _________________________________________________________________________

<basis_specs>
===============================================================================
H                    Z=   1    Mass=  1.0080        Charge= 0.17977+309
Lmxo=1 Lmxkb= 2    BasisType=split      Semic=F
L=0  Nsemic=0  Cnfigmx=1
          i=1  nzeta=1  polorb=1  (1s)  (to be polarized perturbatively)
            splnorm:   0.15000    
               vcte:    40.000    
               rinn:  -0.90000    
               qcoe:    0.0000    
               qyuk:    0.0000    
               qwid:   0.10000E-01
                rcs:    0.0000    
            lambdas:    1.0000    
L=1  Nsemic=0  Cnfigmx=2
          i=1  nzeta=0  polorb=0  (2p)  (perturbative polarization orbital) (from 1s)
-------------------------------------------------------------------------------
L=0  Nkbl=1  erefs: 0.17977+309
L=1  Nkbl=1  erefs: 0.17977+309
L=2  Nkbl=1  erefs: 0.17977+309
===============================================================================
</basis_specs>

Using PAO.SplitTailNorm
atom: Called for H                     (Z =   1)
Maximum radius (at nrval) set to   50.00000 8518

read_vps: Pseudopotential generation method:
read_vps: ATM3      Troullier-Martins                       
Valence charge in pseudo generation:    1.00000

xc_check: Exchange-correlation functional:
xc_check: GGA Perdew, Burke & Ernzerhof 1996
V l=0 = -2*Zval/r beyond r=  1.2384
V l=1 = -2*Zval/r beyond r=  1.2321
V l=2 = -2*Zval/r beyond r=  1.2235
All V_l potentials equal beyond r=  1.2371
This should be close to max(r_c) in ps generation
All pots = -2*Zval/r beyond r=  1.2384
Using small-core scheme (local charge) for Vlocal

VLOCAL_FROM_CHLOCAL: 99.0% of the norm of Vloc inside     28.363 Ry
VLOCAL_FROM_CHLOCAL: 99.9% of the norm of Vloc inside     64.639 Ry
atom: Maximum radius for chlocal:    1.44620
atom: Maximum radius for r*vlocal+2*Zval:    1.31026

KBgen: Kleinman-Bylander projectors: 
GHOST: No ghost state for L =  0
   l= 0   rc=  1.362769   el= -0.477200   Ekb= -2.026093   kbcos= -0.345051
GHOST: No ghost state for L =  1
   l= 1   rc=  1.431710   el=  0.007219   Ekb= -0.445752   kbcos= -0.023729
GHOST: No ghost state for L =  2
   l= 2   rc=  1.471166   el=  0.012944   Ekb= -0.141918   kbcos= -0.003041

KBgen: Total number of Kleinman-Bylander projectors:   9
atom: -------------------------------------------------------------------------

atom: SANKEY-TYPE ORBITALS:

SPLIT: Orbitals with angular momentum L= 0

SPLIT: Basis orbitals for state 1s

SPLIT: PAO cut-off radius determined from an
SPLIT: energy shift=  0.010000 Ry
Split based on tail norm

   izeta = 1
                 lambda =    1.000000
                     rc =    5.232664
                 energy =   -0.466073
                kinetic =    0.944036
    potential(screened) =   -1.410108
       potential(ionic) =   -1.935607

POLgen: Perturbative polarization orbital with L=  1

POLgen: Polarization orbital for state 1s
Split based on tail norm

   izeta = 1
                     rc =    5.232664
                 energy =    0.681103
                kinetic =    1.331928
    potential(screened) =   -0.650824
       potential(ionic) =   -1.138826
atom: Total number of Sankey-type orbitals:  4

atm_pop: Valence configuration (for local Pseudopot. screening):
 1s( 1.00)                                                            
 2p( 0.00)                                                            
Vna: chval, zval:    1.00000   1.00000

Vna:  Cut-off radius for the neutral-atom potential:   5.232664

atom: _________________________________________________________________________

prinput: Basis input 

PAO.BasisType split     

%block ChemicalSpeciesLabel
    1    8 O                       # Species index, atomic number, species label
    2    1 H                       # Species index, atomic number, species label
%endblock ChemicalSpeciesLabel

%block PAO.Basis                 # Define Basis set
# WARNING: This information might be incomplete!
O                     2                    # Species label, number of l-shells
 n=2   0   1                         # n, l, Nzeta 
   3.532   
   1.000   
 n=2   1   1 P   1                   # n, l, Nzeta, Polarization, NzetaPol
   4.300   
   1.000   
H                     1                    # Species label, number of l-shells
 n=1   0   1 P   1                   # n, l, Nzeta, Polarization, NzetaPol
   5.233   
   1.000   
%endblock PAO.Basis

prinput: ----------------------------------------------------------------------

Dumping basis to NetCDF file O.ion.nc
Dumping basis to NetCDF file H.ion.nc
coor:   Atomic-coordinates input format  =     Cartesian coordinates
coor:                                          (in Angstroms)

ioxv: Reading coordinates and velocities from file
! Info in XV file prevails over previous structure input
WARNING: xoc.VERLET_RESTART not found--reading only XV file and moving back 1 time step using Euler

siesta: Atomic coordinates (Bohr) and species
siesta:      2.54735  -0.00100  -0.00070  1        1
siesta:      5.01155  -0.00100  -0.00070  1        2
siesta:     12.74289   0.01600   0.01130  2        3
siesta:     14.11278   0.01600   0.01130  2        4

siesta: System type = chain     

initatomlists: Number of atoms, orbitals, and projectors:      4    26    50

coxmol: Writing XMOL coordinates into file xoc.xyz                                                                                                                                                                                                                             

siesta: ******************** Simulation parameters ****************************
siesta:
siesta: The following are some of the parameters of the simulation.
siesta: A complete list of the parameters used, including default values,
siesta: can be found in file out.fdf
siesta:
redata: Spin configuration                          = none
redata: Number of spin components                   = 1
redata: Time-Reversal Symmetry                      = T
redata: Spin spiral                                 = F
redata: Long output                                 =   F
redata: Number of Atomic Species                    =        2
redata: Charge density info will appear in .RHO file
redata: Write Mulliken charges (when)               = none
redata: Write Mulliken Pop.                         = NO
redata: Write Hirshfeld charges (when)              = none
redata: Write Voronoi charges (when)                = none
redata: Write spin charge (when)                    = none
redata: Matel table size (NRTAB)                    =     1024
redata: Mesh Cutoff                                 =   200.0000 Ry
redata: Net charge of the system                    =     0.0000 |e|
redata: Min. number of SCF Iter                     =        0
redata: Max. number of SCF Iter                     =      250
redata: SCF convergence failure will abort job
redata: SCF mix quantity                            = Hamiltonian
redata: Mix DM or H after convergence               =   F
redata: Recompute H after scf cycle                 =   F
redata: Mix DM in first SCF step                    =   T
redata: Write Pulay info on disk                    =   F
redata: New DM Occupancy tolerance                  = 0.000000000001
redata: No kicks to SCF
redata: DM Mixing Weight for Kicks                  =     0.5000
redata: Require Harris convergence for SCF          =   F
redata: Harris energy tolerance for SCF             =     0.000100 eV
redata: Require DM convergence for SCF              =   T
redata: DM tolerance for SCF                        =     0.000300
redata: Require EDM convergence for SCF             =   F
redata: EDM tolerance for SCF                       =     0.001000 eV
redata: Require H convergence for SCF               =   T
redata: Hamiltonian tolerance for SCF               =     0.001000 eV
redata: Require (free) Energy convergence for SCF   =   F
redata: (free) Energy tolerance for SCF             =     0.000100 eV
redata: Using DFT-D3 dispersion                     =   F
redata: Using Saved Data (generic)                  =   F
redata: Use continuation files for DM               =   T
redata: Neglect nonoverlap interactions             =   F
redata: Method of Calculation                       = Diagonalization
redata: Electronic Temperature                      =   290.1130 K
redata: Fix the spin of the system                  =   F
redata: Max. number of TDED Iter                    =        1
redata: Number of TDED substeps                     =        3
redata: Dynamics option                             = Verlet MD run
redata: Initial MD time step                        =        1
redata:   Final MD time step                        =      200
redata: Length of MD time step                      =     1.0000 fs
redata: Initial Temperature of MD run               =     0.0000 K
redata: Perform a MD quench                         =   F
mix.SCF: Pulay mixing                            = Pulay
mix.SCF:    Variant                              = stable
mix.SCF:    History steps                        = 6
mix.SCF:    Linear mixing weight                 =     0.020000
mix.SCF:    Mixing weight                        =     0.020000
mix.SCF:    SVD condition                        = 0.1000E-07
redata: Save all siesta data in one NC              =   F
redata: ***********************************************************************

%block SCF.Mixers
  Pulay
%endblock SCF.Mixers

%block SCF.Mixer.Pulay
  # Mixing method
  method pulay
  variant stable

  # Mixing options
  weight 0.0200
  weight.linear 0.0200
  history 6
%endblock SCF.Mixer.Pulay

Size of DM history Fstack: 1
Total number of electrons:    14.000000
Total ionic charge:    14.000000
 Kpoints in:            1 . Kpoints trimmed:            1

siesta: k-grid: Number of k-points = 1
siesta: k-points from Monkhorst-Pack grid
siesta: k-cutoff (effective) =     5.000 Ang
siesta: k-point supercell and displacements
siesta: k-grid:     1     0     0      0.000
siesta: k-grid:     0     1     0      0.000
siesta: k-grid:     0     0     1      0.000

diag: Algorithm                                     = D&C
diag: Used triangular part                          = Lower
diag: Absolute tolerance                            =  0.100E-15
diag: Orthogonalization factor                      =  0.100E-05
diag: Memory factor                                 =  1.0000


ts: **************************************************************
ts: Save H and S matrices                           =    F
ts: Save DM and EDM matrices                        =    F
ts: Only save the overlap matrix S                  =    F
ts: **************************************************************

************************ Begin: TS CHECKS AND WARNINGS ************************
************************ End: TS CHECKS AND WARNINGS **************************


                     ====================================
                        Begin MD step =      1
                     ====================================

outcell: Unit cell vectors (Ang):
       10.000004    0.000000    0.000000
        0.000000   10.000004    0.000000
        0.000000    0.000000   10.000004

outcell: Cell vector modules (Ang)   :   10.000004   10.000004   10.000004
outcell: Cell angles (23,13,12) (deg):     90.0000     90.0000     90.0000
outcell: Cell volume (Ang**3)        :   1000.0012
<dSpData1D:S at geom step 1
  <sparsity:sparsity for geom step 1
    nrows_g=26 nrows=26 sparsity=.9882 nnzs=668, refcount: 7>
  <dData1D:(new from dSpData1D) n=668, refcount: 1>
refcount: 1>
new_DM -- step:     1
Initializing Density Matrix...

Attempting to read DM from file... Failed...
DM filled with atomic data:
<dSpData2D:DM initialized from atoms
  <sparsity:sparsity for geom step 1
    nrows_g=26 nrows=26 sparsity=.9882 nnzs=668, refcount: 8>
  <dData2D:DM n=668 m=1, refcount: 1>
refcount: 1>
No. of atoms with KB's overlaping orbs in proc 0. Max # of overlaps:       4      18

InitMesh: MESH = 90 x 90 x 90 = 729000
InitMesh: Mesh cutoff (required, used) =   200.000   223.865 Ry
New grid distribution [1]: sub = 2

stepf: Fermi-Dirac step function

siesta: Program's energy decomposition (eV):
siesta: Ebs     =      -210.139285
siesta: Eions   =      1581.702395
siesta: Ena     =       338.517812
siesta: Ekin    =       624.686999
siesta: Enl     =       -90.877818
siesta: Eso     =         0.000000
siesta: Edftu   =         0.000000
siesta: DEna    =        14.301929
siesta: DUscf   =         1.601200
siesta: DUext   =         0.000000
siesta: Ex      =      -190.532784
siesta: Ec      =       -13.817043
siesta: Exc     =      -204.349827
siesta: EbV     =         0.000000
siesta: eta*DQ  =         0.000000
siesta: Emadel  =         0.000000
siesta: Emeta   =         0.000000
siesta: Emolmec =         0.000000
siesta: Ekinion =         0.000000
siesta: Eharris =      -900.237710
siesta: Etot    =      -897.822100
siesta: FreeEng =      -897.891415

        iscf     Eharris(eV)        E_KS(eV)     FreeEng(eV)     dDmax    Ef(eV) dHmax(eV)
   scf:    1     -900.237710     -897.822100     -897.891415  0.774896 -4.685373  2.421838
timer: Routine,Calls,Time,% = IterSCF        1       0.571  25.87
   scf:    2     -897.860057     -897.841137     -897.910451  0.001844 -4.717961  2.355996
   scf:    3     -898.282889     -898.126152     -898.195467  0.064629 -5.796821  0.203533
   scf:    4     -898.125871     -898.127441     -898.196756  0.009260 -5.709933  0.383584
   scf:    5     -898.131505     -898.129766     -898.199081  0.007292 -5.909940  0.016172
   scf:    6     -898.129736     -898.129762     -898.199077  0.000634 -5.904455  0.015209
   scf:    7     -898.129794     -898.129780     -898.199095  0.000393 -5.910618  0.004220
   scf:    8     -898.129782     -898.129781     -898.199096  0.000330 -5.907663  0.001782
   scf:    9     -898.129782     -898.129782     -898.199096  0.000351 -5.908112  0.000206
   scf:   10     -898.129782     -898.129782     -898.199096  0.000007 -5.908052  0.000115

SCF Convergence by DM+H criterion
max |DM_out - DM_in|         :     0.0000066448
max |H_out - H_in|      (eV) :     0.0001147346
SCF cycle converged after 10 iterations

Using DM_out to compute the final energy and forces
No. of atoms with KB's overlaping orbs in proc 0. Max # of overlaps:       4      18

siesta: E_KS(eV) =             -898.1298

siesta: E_KS - E_eggbox =      -898.1298

siesta: Atomic forces (eV/Ang):
----------------------------------------
   Tot    0.002035   -0.000878   -0.000608
----------------------------------------
   Max    5.159364
   Res    2.104882    sqrt( Sum f_i^2 / 3N )
----------------------------------------
   Max    5.159364    constrained

Stress tensor Voigt[x,y,z,yz,xz,xy] (kbar):       -9.78       -0.42       -0.25       -0.10       -0.04        0.20
(Free)E + p*V (eV/cell)     -896.0267
Target enthalpy (eV/cell)     -898.1991

siesta: Stress tensor (static) (eV/Ang**3):
        -0.003693   -0.000000   -0.000000
        -0.000000    0.000006    0.000000
        -0.000000    0.000000    0.000006

siesta: Pressure (static):          1.96606093  kBar

siesta: Stress tensor (total) (eV/Ang**3):
        -0.006104    0.000124   -0.000024
         0.000124   -0.000259   -0.000060
        -0.000024   -0.000060   -0.000154

siesta: Pressure (total):          3.48063642  kBar

siesta: Temp_ion =    3656.680 K

                     ====================================
                        Begin MD step =      2
                     ====================================

outcell: Unit cell vectors (Ang):
       10.000004    0.000000    0.000000
        0.000000   10.000004    0.000000
        0.000000    0.000000   10.000004

outcell: Cell vector modules (Ang)   :   10.000004   10.000004   10.000004
outcell: Cell angles (23,13,12) (deg):     90.0000     90.0000     90.0000
outcell: Cell volume (Ang**3)        :   1000.0012
<dSpData1D:S at geom step 2
  <sparsity:sparsity for geom step 2
    nrows_g=26 nrows=26 sparsity=.9763 nnzs=660, refcount: 7>
  <dData1D:(new from dSpData1D) n=660, refcount: 1>
refcount: 1>
new_DM -- step:     2
Re-using DM from previous geometries...
Number of DMs in history: 1
 DM extrapolation coefficients: 
1   1.00000
New DM after history re-use:
<dSpData2D:SpM extrapolated using coords
  <sparsity:sparsity for geom step 2
    nrows_g=26 nrows=26 sparsity=.9763 nnzs=660, refcount: 9>
  <dData2D:(temp array for extrapolation) n=660 m=1, refcount: 1>
refcount: 1>
Note: For starting DM, Qtot, Tr[D*S] =         14.00000000         13.97901736
No. of atoms with KB's overlaping orbs in proc 0. Max # of overlaps:       4      18

InitMesh: MESH = 90 x 90 x 90 = 729000
InitMesh: Mesh cutoff (required, used) =   200.000   223.865 Ry
New grid distribution [1]: sub = 2

        iscf     Eharris(eV)        E_KS(eV)     FreeEng(eV)     dDmax    Ef(eV) dHmax(eV)
   scf:    1     -898.107421     -898.328097     -898.397412  0.012560 -5.642380  0.274756
   scf:    2     -898.327645     -898.328567     -898.397874  0.010193 -5.892356  0.098919
   scf:    3     -898.329468     -898.329061     -898.398373  0.003776 -5.839184  0.047813
   scf:    4     -898.328907     -898.329115     -898.398424  0.011712 -5.847764  0.025258
   scf:    5     -898.329098     -898.329190     -898.398503  0.009852 -5.852274  0.019162
   scf:    6     -898.329241     -898.329218     -898.398532  0.001092 -5.868907  0.011268
   scf:    7     -898.329243     -898.329238     -898.398553  0.002632 -5.864710  0.000935
   scf:    8     -898.329238     -898.329238     -898.398553  0.000180 -5.865158  0.000229

SCF Convergence by DM+H criterion
max |DM_out - DM_in|         :     0.0001801981
max |H_out - H_in|      (eV) :     0.0002288480
SCF cycle converged after 8 iterations

Using DM_out to compute the final energy and forces
No. of atoms with KB's overlaping orbs in proc 0. Max # of overlaps:       4      18

siesta: E_KS(eV) =             -898.3292

siesta: Atomic forces (eV/Ang):
----------------------------------------
   Tot    0.000697    0.000170    0.000169
----------------------------------------
   Max    2.719723
   Res    1.134626    sqrt( Sum f_i^2 / 3N )
----------------------------------------
   Max    2.719723    constrained

Stress tensor Voigt[x,y,z,yz,xz,xy] (kbar):       -8.26       -0.42       -0.26       -0.11       -0.27        0.03
(Free)E + p*V (eV/cell)     -896.5371
Target enthalpy (eV/cell)     -898.3986

siesta: Stress tensor (static) (eV/Ang**3):
        -0.002745   -0.000104   -0.000145
        -0.000104    0.000001   -0.000007
        -0.000145   -0.000007   -0.000004

siesta: Pressure (static):          1.46780330  kBar

siesta: Stress tensor (total) (eV/Ang**3):
        -0.005156    0.000019   -0.000169
         0.000019   -0.000264   -0.000066
        -0.000169   -0.000066   -0.000164

siesta: Pressure (total):          2.98237879  kBar

siesta: Temp_ion =    4051.462 K

                     ====================================
                        Begin MD step =      3
                     ====================================

outcell: Unit cell vectors (Ang):
       10.000004    0.000000    0.000000
        0.000000   10.000004    0.000000
        0.000000    0.000000   10.000004

outcell: Cell vector modules (Ang)   :   10.000004   10.000004   10.000004
outcell: Cell angles (23,13,12) (deg):     90.0000     90.0000     90.0000
outcell: Cell volume (Ang**3)        :   1000.0012
Gamma-point calculation with multiply-connected orbital pairs
Gamma-point calculation with multiply-connected orbital pairs
Folding of H and S implicitly performed
Folding of H and S implicitly performed
<dSpData1D:S at geom step 3
  <sparsity:sparsity for geom step 3
    nrows_g=26 nrows=26 sparsity=.9882 nnzs=668, refcount: 7>
  <dData1D:(new from dSpData1D) n=668, refcount: 1>
refcount: 1>
new_DM -- step:     3
Re-using DM from previous geometries...
Number of DMs in history: 1
 DM extrapolation coefficients: 
1   1.00000
New DM after history re-use:
<dSpData2D:SpM extrapolated using coords
  <sparsity:sparsity for geom step 3
    nrows_g=26 nrows=26 sparsity=.9882 nnzs=668, refcount: 9>
  <dData2D:(temp array for extrapolation) n=668 m=1, refcount: 1>
refcount: 1>
Note: For starting DM, Qtot, Tr[D*S] =         14.00000000         13.94832624
No. of atoms with KB's overlaping orbs in proc 0. Max # of overlaps:       4      22

InitMesh: MESH = 90 x 90 x 90 = 729000
InitMesh: Mesh cutoff (required, used) =   200.000   223.865 Ry
New grid distribution [1]: sub = 2

        iscf     Eharris(eV)        E_KS(eV)     FreeEng(eV)     dDmax    Ef(eV) dHmax(eV)
   scf:    1     -898.076676     -898.418329     -898.487643  0.024234 -5.314028  0.608028
   scf:    2     -898.413333     -898.418393     -898.487592  0.029649 -5.874160  0.181188
   scf:    3     -898.421876     -898.420303     -898.489575  0.010692 -5.780818  0.096304
   scf:    4     -898.419083     -898.420765     -898.490040  0.032558 -5.795702  0.053627
   scf:    5     -898.421112     -898.421313     -898.490626  0.019438 -5.803791  0.038837
   scf:    6     -898.421445     -898.421390     -898.490704  0.001961 -5.840457  0.027150
   scf:    7     -898.421498     -898.421459     -898.490774  0.001532 -5.826114  0.001992
   scf:    8     -898.421458     -898.421458     -898.490773  0.000539 -5.826790  0.001518
   scf:    9     -898.421458     -898.421458     -898.490773  0.000071 -5.827546  0.000741

SCF Convergence by DM+H criterion
max |DM_out - DM_in|         :     0.0000714002
max |H_out - H_in|      (eV) :     0.0007412968
SCF cycle converged after 9 iterations

Using DM_out to compute the final energy and forces
No. of atoms with KB's overlaping orbs in proc 0. Max # of overlaps:       4      22

siesta: E_KS(eV) =             -898.4215

siesta: Atomic forces (eV/Ang):
----------------------------------------
   Tot    0.000266    0.000048    0.000199
----------------------------------------
   Max    1.038214
   Res    0.488847    sqrt( Sum f_i^2 / 3N )
----------------------------------------
   Max    1.038214    constrained

Stress tensor Voigt[x,y,z,yz,xz,xy] (kbar):       -5.53       -0.42       -0.25       -0.10       -0.27       -0.02
(Free)E + p*V (eV/cell)     -897.2015
Target enthalpy (eV/cell)     -898.4908

siesta: Stress tensor (static) (eV/Ang**3):
        -0.000748    0.000011    0.000073
         0.000011    0.000008    0.000006
         0.000073    0.000006    0.000014

siesta: Pressure (static):          0.38755130  kBar

siesta: Stress tensor (total) (eV/Ang**3):
        -0.003450   -0.000013   -0.000169
        -0.000013   -0.000262   -0.000061
        -0.000169   -0.000061   -0.000156

siesta: Pressure (total):          2.06564330  kBar

siesta: Temp_ion =    4281.918 K

                     ====================================
                        Begin MD step =      4
                     ====================================

outcell: Unit cell vectors (Ang):
       10.000004    0.000000    0.000000
        0.000000   10.000004    0.000000
        0.000000    0.000000   10.000004

outcell: Cell vector modules (Ang)   :   10.000004   10.000004   10.000004
outcell: Cell angles (23,13,12) (deg):     90.0000     90.0000     90.0000
outcell: Cell volume (Ang**3)        :   1000.0012
<dSpData1D:S at geom step 4
  <sparsity:sparsity for geom step 4
    nrows_g=26 nrows=26 sparsity=1.0000 nnzs=676, refcount: 7>
  <dData1D:(new from dSpData1D) n=676, refcount: 1>
refcount: 1>
new_DM -- step:     4
Re-using DM from previous geometries...
Number of DMs in history: 1
 DM extrapolation coefficients: 
1   1.00000
New DM after history re-use:
<dSpData2D:SpM extrapolated using coords
  <sparsity:sparsity for geom step 4
    nrows_g=26 nrows=26 sparsity=1.0000 nnzs=676, refcount: 9>
  <dData2D:(temp array for extrapolation) n=676 m=1, refcount: 1>
refcount: 1>
Note: For starting DM, Qtot, Tr[D*S] =         14.00000000         13.94470272
No. of atoms with KB's overlaping orbs in proc 0. Max # of overlaps:       4      22

InitMesh: MESH = 90 x 90 x 90 = 729000
InitMesh: Mesh cutoff (required, used) =   200.000   223.865 Ry
New grid distribution [1]: sub = 2

        iscf     Eharris(eV)        E_KS(eV)     FreeEng(eV)     dDmax    Ef(eV) dHmax(eV)
   scf:    1     -897.882691     -898.254257     -898.323565  0.021859 -5.250454  0.653015
   scf:    2     -898.215181     -898.243665     -898.312005  0.093388 -5.844945  0.299856
   scf:    3     -898.259115     -898.252379     -898.321336  0.033233 -5.740857  0.181099
   scf:    4     -898.252554     -898.256569     -898.325832  0.069443 -5.762101  0.077185
   scf:    5     -898.256315     -898.257262     -898.326561  0.030484 -5.767201  0.040525
   scf:    6     -898.257478     -898.257397     -898.326708  0.005543 -5.772846  0.040585
   scf:    7     -898.257654     -898.257563     -898.326877  0.003992 -5.795764  0.002962
   scf:    8     -898.257566     -898.257565     -898.326880  0.000793 -5.796398  0.001884
   scf:    9     -898.257564     -898.257565     -898.326879  0.000689 -5.797110  0.001407
   scf:   10     -898.257565     -898.257565     -898.326879  0.000063 -5.797289  0.001140
   scf:   11     -898.257565     -898.257565     -898.326880  0.000541 -5.797751  0.000250
   scf:   12     -898.257565     -898.257565     -898.326880  0.000010 -5.797743  0.000217

SCF Convergence by DM+H criterion
max |DM_out - DM_in|         :     0.0000098235
max |H_out - H_in|      (eV) :     0.0002167485
SCF cycle converged after 12 iterations

Using DM_out to compute the final energy and forces
No. of atoms with KB's overlaping orbs in proc 0. Max # of overlaps:       4      22

siesta: E_KS(eV) =             -898.2576

siesta: Atomic forces (eV/Ang):
----------------------------------------
   Tot   -0.001124    0.000217    0.000190
----------------------------------------
   Max    2.306905
   Res    1.132035    sqrt( Sum f_i^2 / 3N )
----------------------------------------
   Max    2.306905    constrained

Stress tensor Voigt[x,y,z,yz,xz,xy] (kbar):       -3.92       -0.39       -0.17       -0.04        0.15        0.17
(Free)E + p*V (eV/cell)     -897.3962
Target enthalpy (eV/cell)     -898.3269

siesta: Stress tensor (static) (eV/Ang**3):
         0.000426    0.000184    0.000399
         0.000184    0.000030    0.000044
         0.000399    0.000044    0.000073

siesta: Pressure (static):         -0.28240701  kBar

siesta: Stress tensor (total) (eV/Ang**3):
        -0.002446    0.000105    0.000094
         0.000105   -0.000243   -0.000026
         0.000094   -0.000026   -0.000104

siesta: Pressure (total):          1.49113878  kBar

siesta: Temp_ion =    3909.799 K

                     ====================================
                        Begin MD step =      5
                     ====================================

outcell: Unit cell vectors (Ang):
       10.000004    0.000000    0.000000
        0.000000   10.000004    0.000000
        0.000000    0.000000   10.000004

outcell: Cell vector modules (Ang)   :   10.000004   10.000004   10.000004
outcell: Cell angles (23,13,12) (deg):     90.0000     90.0000     90.0000
outcell: Cell volume (Ang**3)        :   1000.0012
<dSpData1D:S at geom step 5
  <sparsity:sparsity for geom step 5
    nrows_g=26 nrows=26 sparsity=1.0000 nnzs=676, refcount: 7>
  <dData1D:(new from dSpData1D) n=676, refcount: 1>
refcount: 1>
new_DM -- step:     5
Re-using DM from previous geometries...
Number of DMs in history: 1
 DM extrapolation coefficients: 
1   1.00000
New DM after history re-use:
<dSpData2D:SpM extrapolated using coords
  <sparsity:sparsity for geom step 5
    nrows_g=26 nrows=26 sparsity=1.0000 nnzs=676, refcount: 9>
  <dData2D:(temp array for extrapolation) n=676 m=1, refcount: 1>
refcount: 1>
Note: For starting DM, Qtot, Tr[D*S] =         14.00000000         13.96577845
No. of atoms with KB's overlaping orbs in proc 0. Max # of overlaps:       4      22

InitMesh: MESH = 90 x 90 x 90 = 729000
InitMesh: Mesh cutoff (required, used) =   200.000   223.865 Ry
New grid distribution [1]: sub = 2

        iscf     Eharris(eV)        E_KS(eV)     FreeEng(eV)     dDmax    Ef(eV) dHmax(eV)
   scf:    1     -897.842316     -898.094900     -898.164215  0.012564 -5.435878  0.415302
   scf:    2     -898.090386     -898.094184     -898.163446  0.025985 -5.807258  0.185281
   scf:    3     -898.096461     -898.095435     -898.164731  0.009028 -5.739100  0.115437
   scf:    4     -898.094801     -898.095835     -898.165121  0.027915 -5.757377  0.033351
   scf:    5     -898.096085     -898.096190     -898.165504  0.016754 -5.761212  0.026543
   scf:    6     -898.096240     -898.096218     -898.165531  0.000842 -5.779153  0.016880
   scf:    7     -898.096269     -898.096255     -898.165570  0.003082 -5.775930  0.001336
   scf:    8     -898.096255     -898.096255     -898.165570  0.000257 -5.776447  0.000383

SCF Convergence by DM+H criterion
max |DM_out - DM_in|         :     0.0002572405
max |H_out - H_in|      (eV) :     0.0003834049
SCF cycle converged after 8 iterations

Using DM_out to compute the final energy and forces
No. of atoms with KB's overlaping orbs in proc 0. Max # of overlaps:       4      22

siesta: E_KS(eV) =             -898.0963

siesta: Atomic forces (eV/Ang):
----------------------------------------
   Tot    0.000272   -0.000221    0.000166
----------------------------------------
   Max    2.898377
   Res    1.421363    sqrt( Sum f_i^2 / 3N )
----------------------------------------
   Max    2.898377    constrained

Stress tensor Voigt[x,y,z,yz,xz,xy] (kbar):       -2.99       -0.33       -0.02        0.06        0.71        0.42
(Free)E + p*V (eV/cell)     -897.4702
Target enthalpy (eV/cell)     -898.1656

siesta: Stress tensor (static) (eV/Ang**3):
         0.000752    0.000297    0.000646
         0.000297    0.000055    0.000088
         0.000646    0.000088    0.000139

siesta: Pressure (static):         -0.50530795  kBar

siesta: Stress tensor (total) (eV/Ang**3):
        -0.001867    0.000263    0.000443
         0.000263   -0.000208    0.000035
         0.000443    0.000035   -0.000011

siesta: Pressure (total):          1.11410800  kBar

siesta: Temp_ion =    3517.275 K

                     ====================================
                        Begin MD step =      6
                     ====================================

outcell: Unit cell vectors (Ang):
       10.000004    0.000000    0.000000
        0.000000   10.000004    0.000000
        0.000000    0.000000   10.000004

outcell: Cell vector modules (Ang)   :   10.000004   10.000004   10.000004
outcell: Cell angles (23,13,12) (deg):     90.0000     90.0000     90.0000
outcell: Cell volume (Ang**3)        :   1000.0012
<dSpData1D:S at geom step 6
  <sparsity:sparsity for geom step 6
    nrows_g=26 nrows=26 sparsity=1.0000 nnzs=676, refcount: 7>
  <dData1D:(new from dSpData1D) n=676, refcount: 1>
refcount: 1>
new_DM -- step:     6
Re-using DM from previous geometries...
Number of DMs in history: 1
 DM extrapolation coefficients: 
1   1.00000
New DM after history re-use:
<dSpData2D:SpM extrapolated using coords
  <sparsity:sparsity for geom step 6
    nrows_g=26 nrows=26 sparsity=1.0000 nnzs=676, refcount: 9>
  <dData2D:(temp array for extrapolation) n=676 m=1, refcount: 1>
refcount: 1>
No. of atoms with KB's overlaping orbs in proc 0. Max # of overlaps:       4      22

InitMesh: MESH = 90 x 90 x 90 = 729000
InitMesh: Mesh cutoff (required, used) =   200.000   223.865 Ry
New grid distribution [1]: sub = 2

        iscf     Eharris(eV)        E_KS(eV)     FreeEng(eV)     dDmax    Ef(eV) dHmax(eV)
   scf:    1     -898.034575     -898.085927     -898.155240  0.012658 -5.744433  0.035895
   scf:    2     -898.079053     -898.083795     -898.152929  0.033500 -5.770930  0.056266
   scf:    3     -898.086697     -898.085815     -898.155115  0.022224 -5.755936  0.025368
   scf:    4     -898.085933     -898.085983     -898.155297  0.009822 -5.762581  0.012140
   scf:    5     -898.085990     -898.085991     -898.155306  0.001495 -5.763656  0.002723
   scf:    6     -898.085991     -898.085991     -898.155306  0.000122 -5.764089  0.002435
   scf:    7     -898.085992     -898.085992     -898.155306  0.000261 -5.766366  0.000216

SCF Convergence by DM+H criterion
max |DM_out - DM_in|         :     0.0002612526
max |H_out - H_in|      (eV) :     0.0002164152
SCF cycle converged after 7 iterations

Using DM_out to compute the final energy and forces
No. of atoms with KB's overlaping orbs in proc 0. Max # of overlaps:       4      22

siesta: E_KS(eV) =             -898.0860

siesta: Atomic forces (eV/Ang):
----------------------------------------
   Tot   -0.000829   -0.000280    0.000237
----------------------------------------
   Max    2.889465
   Res    1.466730    sqrt( Sum f_i^2 / 3N )
----------------------------------------
   Max    2.889465    constrained

Stress tensor Voigt[x,y,z,yz,xz,xy] (kbar):       -2.97       -0.28        0.14        0.16        1.13        0.58
(Free)E + p*V (eV/cell)     -897.5093
Target enthalpy (eV/cell)     -898.1553

siesta: Stress tensor (static) (eV/Ang**3):
         0.000529    0.000323    0.000756
         0.000323    0.000071    0.000122
         0.000756    0.000122    0.000189

siesta: Pressure (static):         -0.42186304  kBar

siesta: Stress tensor (total) (eV/Ang**3):
        -0.001852    0.000359    0.000704
         0.000359   -0.000173    0.000101
         0.000704    0.000101    0.000087

siesta: Pressure (total):          1.03497197  kBar

siesta: Temp_ion =    3491.877 K

                     ====================================
                        Begin MD step =      7
                     ====================================

outcell: Unit cell vectors (Ang):
       10.000004    0.000000    0.000000
        0.000000   10.000004    0.000000
        0.000000    0.000000   10.000004

outcell: Cell vector modules (Ang)   :   10.000004   10.000004   10.000004
outcell: Cell angles (23,13,12) (deg):     90.0000     90.0000     90.0000
outcell: Cell volume (Ang**3)        :   1000.0012
<dSpData1D:S at geom step 7
  <sparsity:sparsity for geom step 7
    nrows_g=26 nrows=26 sparsity=1.0000 nnzs=676, refcount: 7>
  <dData1D:(new from dSpData1D) n=676, refcount: 1>
refcount: 1>
new_DM -- step:     7
Re-using DM from previous geometries...
Number of DMs in history: 1
 DM extrapolation coefficients: 
1   1.00000
New DM after history re-use:
<dSpData2D:SpM extrapolated using coords
  <sparsity:sparsity for geom step 7
    nrows_g=26 nrows=26 sparsity=1.0000 nnzs=676, refcount: 9>
  <dData2D:(temp array for extrapolation) n=676 m=1, refcount: 1>
refcount: 1>
Note: For starting DM, Qtot, Tr[D*S] =         14.00000000         14.03244669
No. of atoms with KB's overlaping orbs in proc 0. Max # of overlaps:       4      22

InitMesh: MESH = 90 x 90 x 90 = 729000
InitMesh: Mesh cutoff (required, used) =   200.000   223.865 Ry
New grid distribution [1]: sub = 2

        iscf     Eharris(eV)        E_KS(eV)     FreeEng(eV)     dDmax    Ef(eV) dHmax(eV)
   scf:    1     -898.384484     -898.233156     -898.302470  0.012992 -6.075326  0.371466
   scf:    2     -898.229872     -898.232530     -898.301830  0.011084 -5.743976  0.155572
   scf:    3     -898.233978     -898.233314     -898.302623  0.004051 -5.800915  0.105878
   scf:    4     -898.233480     -898.233785     -898.303089  0.014998 -5.780543  0.024053
   scf:    5     -898.233832     -898.233914     -898.303228  0.011370 -5.777570  0.019783
   scf:    6     -898.233965     -898.233948     -898.303263  0.001976 -5.774480  0.015008
   scf:    7     -898.233960     -898.233957     -898.303272  0.000590 -5.768021  0.001433
   scf:    8     -898.233957     -898.233957     -898.303272  0.000067 -5.767586  0.000314

SCF Convergence by DM+H criterion
max |DM_out - DM_in|         :     0.0000665951
max |H_out - H_in|      (eV) :     0.0003143625
SCF cycle converged after 8 iterations

Using DM_out to compute the final energy and forces
No. of atoms with KB's overlaping orbs in proc 0. Max # of overlaps:       4      22

siesta: E_KS(eV) =             -898.2340

siesta: Atomic forces (eV/Ang):
----------------------------------------
   Tot   -0.001451    0.000102   -0.000398
----------------------------------------
   Max    2.322034
   Res    1.281337    sqrt( Sum f_i^2 / 3N )
----------------------------------------
   Max    2.322034    constrained

Stress tensor Voigt[x,y,z,yz,xz,xy] (kbar):       -4.15       -0.25        0.22        0.22        1.16        0.48
(Free)E + p*V (eV/cell)     -897.4331
Target enthalpy (eV/cell)     -898.3033

siesta: Stress tensor (static) (eV/Ang**3):
        -0.000163    0.000231    0.000670
         0.000231    0.000068    0.000125
         0.000670    0.000125    0.000193

siesta: Pressure (static):         -0.05221251  kBar

siesta: Stress tensor (total) (eV/Ang**3):
        -0.002590    0.000303    0.000721
         0.000303   -0.000159    0.000136
         0.000721    0.000136    0.000139

siesta: Pressure (total):          1.39410270  kBar

siesta: Temp_ion =    3853.389 K

                     ====================================
                        Begin MD step =      8
                     ====================================

outcell: Unit cell vectors (Ang):
       10.000004    0.000000    0.000000
        0.000000   10.000004    0.000000
        0.000000    0.000000   10.000004

outcell: Cell vector modules (Ang)   :   10.000004   10.000004   10.000004
outcell: Cell angles (23,13,12) (deg):     90.0000     90.0000     90.0000
outcell: Cell volume (Ang**3)        :   1000.0012
<dSpData1D:S at geom step 8
  <sparsity:sparsity for geom step 8
    nrows_g=26 nrows=26 sparsity=1.0000 nnzs=676, refcount: 7>
  <dData1D:(new from dSpData1D) n=676, refcount: 1>
refcount: 1>
new_DM -- step:     8
Re-using DM from previous geometries...
Number of DMs in history: 1
 DM extrapolation coefficients: 
1   1.00000
New DM after history re-use:
<dSpData2D:SpM extrapolated using coords
  <sparsity:sparsity for geom step 8
    nrows_g=26 nrows=26 sparsity=1.0000 nnzs=676, refcount: 9>
  <dData2D:(temp array for extrapolation) n=676 m=1, refcount: 1>
refcount: 1>
Note: For starting DM, Qtot, Tr[D*S] =         14.00000000         14.05746981
No. of atoms with KB's overlaping orbs in proc 0. Max # of overlaps:       4      22

InitMesh: MESH = 90 x 90 x 90 = 729000
InitMesh: Mesh cutoff (required, used) =   200.000   223.865 Ry
New grid distribution [1]: sub = 2

        iscf     Eharris(eV)        E_KS(eV)     FreeEng(eV)     dDmax    Ef(eV) dHmax(eV)
   scf:    1     -898.691516     -898.406479     -898.475794  0.021643 -6.329410  0.684535
   scf:    2     -898.387771     -898.402162     -898.471456  0.025065 -5.734031  0.364945
   scf:    3     -898.410141     -898.406526     -898.475834  0.008513 -5.860310  0.256659
   scf:    4     -898.408942     -898.409132     -898.478430  0.023679 -5.804484  0.045188
   scf:    5     -898.408906     -898.409295     -898.478603  0.017944 -5.797782  0.037645
   scf:    6     -898.409384     -898.409388     -898.478701  0.004565 -5.797876  0.046772
   scf:    7     -898.409522     -898.409496     -898.478811  0.004516 -5.780484  0.002277
   scf:    8     -898.409496     -898.409496     -898.478811  0.000183 -5.780246  0.001474
   scf:    9     -898.409496     -898.409496     -898.478811  0.000031 -5.779428  0.000235

SCF Convergence by DM+H criterion
max |DM_out - DM_in|         :     0.0000308870
max |H_out - H_in|      (eV) :     0.0002354300
SCF cycle converged after 9 iterations

Using DM_out to compute the final energy and forces
No. of atoms with KB's overlaping orbs in proc 0. Max # of overlaps:       4      22

siesta: E_KS(eV) =             -898.4095

siesta: Atomic forces (eV/Ang):
----------------------------------------
   Tot    0.002308    0.000127   -0.000498
----------------------------------------
   Max    1.812081
   Res    0.809579    sqrt( Sum f_i^2 / 3N )
----------------------------------------
   Max    1.812081    constrained

Stress tensor Voigt[x,y,z,yz,xz,xy] (kbar):       -6.70       -0.32        0.10        0.14        0.53       -0.00
(Free)E + p*V (eV/cell)     -897.0376
Target enthalpy (eV/cell)     -898.4788

siesta: Stress tensor (static) (eV/Ang**3):
        -0.001435   -0.000051    0.000260
        -0.000051    0.000017    0.000054
         0.000260    0.000054    0.000083

siesta: Pressure (static):          0.71306899  kBar

siesta: Stress tensor (total) (eV/Ang**3):
        -0.004185   -0.000000    0.000333
        -0.000000   -0.000200    0.000087
         0.000333    0.000087    0.000061

siesta: Pressure (total):          2.30912038  kBar

siesta: Temp_ion =    4257.700 K

                     ====================================
                        Begin MD step =      9
                     ====================================

outcell: Unit cell vectors (Ang):
       10.000004    0.000000    0.000000
        0.000000   10.000004    0.000000
        0.000000    0.000000   10.000004

outcell: Cell vector modules (Ang)   :   10.000004   10.000004   10.000004
outcell: Cell angles (23,13,12) (deg):     90.0000     90.0000     90.0000
outcell: Cell volume (Ang**3)        :   1000.0012
<dSpData1D:S at geom step 9
  <sparsity:sparsity for geom step 9
    nrows_g=26 nrows=26 sparsity=.9882 nnzs=668, refcount: 7>
  <dData1D:(new from dSpData1D) n=668, refcount: 1>
refcount: 1>
new_DM -- step:     9
Re-using DM from previous geometries...
Number of DMs in history: 1
 DM extrapolation coefficients: 
1   1.00000
New DM after history re-use:
<dSpData2D:SpM extrapolated using coords
  <sparsity:sparsity for geom step 9
    nrows_g=26 nrows=26 sparsity=.9882 nnzs=668, refcount: 9>
  <dData2D:(temp array for extrapolation) n=668 m=1, refcount: 1>
refcount: 1>
Note: For starting DM, Qtot, Tr[D*S] =         14.00000000         14.05871775
No. of atoms with KB's overlaping orbs in proc 0. Max # of overlaps:       4      22

InitMesh: MESH = 90 x 90 x 90 = 729000
InitMesh: Mesh cutoff (required, used) =   200.000   223.865 Ry
New grid distribution [1]: sub = 2

        iscf     Eharris(eV)        E_KS(eV)     FreeEng(eV)     dDmax    Ef(eV) dHmax(eV)
   scf:    1     -898.654137     -898.352652     -898.421966  0.024785 -6.366514  0.722614
   scf:    2     -898.318348     -898.343845     -898.413082  0.029960 -5.752481  0.456913
   scf:    3     -898.358566     -898.352063     -898.421355  0.011215 -5.909627  0.322130
   scf:    4     -898.354146     -898.355561     -898.424819  0.027126 -5.832095  0.050546
   scf:    5     -898.355807     -898.356201     -898.425513  0.020726 -5.824127  0.044356
   scf:    6     -898.356328     -898.356281     -898.425595  0.001858 -5.828040  0.034622
   scf:    7     -898.356460     -898.356402     -898.425717  0.002537 -5.803581  0.002650
   scf:    8     -898.356402     -898.356402     -898.425717  0.000243 -5.803598  0.001782
   scf:    9     -898.356401     -898.356402     -898.425716  0.000367 -5.802646  0.000699
   scf:   10     -898.356402     -898.356402     -898.425717  0.000097 -5.802492  0.000519

SCF Convergence by DM+H criterion
max |DM_out - DM_in|         :     0.0000968050
max |H_out - H_in|      (eV) :     0.0005185032
SCF cycle converged after 10 iterations

Using DM_out to compute the final energy and forces
No. of atoms with KB's overlaping orbs in proc 0. Max # of overlaps:       4      22

siesta: E_KS(eV) =             -898.3564

siesta: Atomic forces (eV/Ang):
----------------------------------------
   Tot   -0.003350    0.000248   -0.001047
----------------------------------------
   Max    2.138849
   Res    1.129970    sqrt( Sum f_i^2 / 3N )
----------------------------------------
   Max    2.138849    constrained

Stress tensor Voigt[x,y,z,yz,xz,xy] (kbar):       -9.96       -0.55       -0.41       -0.19       -0.84       -0.94
(Free)E + p*V (eV/cell)     -896.1555
Target enthalpy (eV/cell)     -898.4257

siesta: Stress tensor (static) (eV/Ang**3):
        -0.003142   -0.000585   -0.000575
        -0.000585   -0.000124   -0.000159
        -0.000575   -0.000159   -0.000242

siesta: Pressure (static):          1.87377380  kBar

siesta: Stress tensor (total) (eV/Ang**3):
        -0.006216   -0.000584   -0.000525
        -0.000584   -0.000341   -0.000118
        -0.000525   -0.000118   -0.000254

siesta: Pressure (total):          3.63728858  kBar

siesta: Temp_ion =    4113.868 K

                     ====================================
                        Begin MD step =     10
                     ====================================

outcell: Unit cell vectors (Ang):
       10.000004    0.000000    0.000000
        0.000000   10.000004    0.000000
        0.000000    0.000000   10.000004

outcell: Cell vector modules (Ang)   :   10.000004   10.000004   10.000004
outcell: Cell angles (23,13,12) (deg):     90.0000     90.0000     90.0000
outcell: Cell volume (Ang**3)        :   1000.0012
Gamma-point calculation with multiply-connected orbital pairs
Gamma-point calculation with multiply-connected orbital pairs
Folding of H and S implicitly performed
Folding of H and S implicitly performed
<dSpData1D:S at geom step 10
  <sparsity:sparsity for geom step 10
    nrows_g=26 nrows=26 sparsity=1.0000 nnzs=676, refcount: 7>
  <dData1D:(new from dSpData1D) n=676, refcount: 1>
refcount: 1>
new_DM -- step:    10
Re-using DM from previous geometries...
Number of DMs in history: 1
 DM extrapolation coefficients: 
1   1.00000
New DM after history re-use:
<dSpData2D:SpM extrapolated using coords
  <sparsity:sparsity for geom step 10
    nrows_g=26 nrows=26 sparsity=1.0000 nnzs=676, refcount: 9>
  <dData2D:(temp array for extrapolation) n=676 m=1, refcount: 1>
refcount: 1>
Note: For starting DM, Qtot, Tr[D*S] =         14.00000000         14.02671525
No. of atoms with KB's overlaping orbs in proc 0. Max # of overlaps:       4      26

InitMesh: MESH = 90 x 90 x 90 = 729000
InitMesh: Mesh cutoff (required, used) =   200.000   223.865 Ry
New grid distribution [1]: sub = 2

        iscf     Eharris(eV)        E_KS(eV)     FreeEng(eV)     dDmax    Ef(eV) dHmax(eV)
   scf:    1     -898.357127     -898.146609     -898.215918  0.014159 -6.100793  0.361680
   scf:    2     -898.105677     -898.134526     -898.203108  0.076472 -5.807016  0.350203
   scf:    3     -898.152139     -898.145124     -898.214285  0.037430 -5.910426  0.219147
   scf:    4     -898.140557     -898.146413     -898.215598  0.057108 -5.866670  0.085469
   scf:    5     -898.147255     -898.147976     -898.217286  0.032565 -5.846990  0.028000
   scf:    6     -898.147948     -898.148039     -898.217352  0.008294 -5.855857  0.021899
   scf:    7     -898.148127     -898.148099     -898.217414  0.002862 -5.837984  0.001510
   scf:    8     -898.148100     -898.148099     -898.217414  0.000129 -5.837389  0.001310
   scf:    9     -898.148099     -898.148100     -898.217414  0.000312 -5.837278  0.001168
   scf:   10     -898.148099     -898.148099     -898.217414  0.000024 -5.837263  0.001092
   scf:   11     -898.148100     -898.148100     -898.217414  0.000119 -5.836978  0.000230

SCF Convergence by DM+H criterion
max |DM_out - DM_in|         :     0.0001191285
max |H_out - H_in|      (eV) :     0.0002300492
SCF cycle converged after 11 iterations

Using DM_out to compute the final energy and forces
No. of atoms with KB's overlaping orbs in proc 0. Max # of overlaps:       4      26

siesta: E_KS(eV) =             -898.1481

siesta: Atomic forces (eV/Ang):
----------------------------------------
   Tot    0.001348   -0.000157   -0.001245
----------------------------------------
   Max    4.420368
   Res    2.124463    sqrt( Sum f_i^2 / 3N )
----------------------------------------
   Max    4.420368    constrained

Stress tensor Voigt[x,y,z,yz,xz,xy] (kbar):      -10.83       -0.85       -1.10       -0.64       -2.01       -1.68
(Free)E + p*V (eV/cell)     -895.5591
Target enthalpy (eV/cell)     -898.2174

siesta: Stress tensor (static) (eV/Ang**3):
        -0.003811   -0.001039   -0.001334
        -0.001039   -0.000305   -0.000439
        -0.001334   -0.000439   -0.000668

siesta: Pressure (static):          2.55508909  kBar

siesta: Stress tensor (total) (eV/Ang**3):
        -0.006761   -0.001049   -0.001254
        -0.001049   -0.000529   -0.000400
        -0.001254   -0.000400   -0.000685

siesta: Pressure (total):          4.25902918  kBar

siesta: Temp_ion =    3700.724 K

                     ====================================
                        Begin MD step =     11
                     ====================================

outcell: Unit cell vectors (Ang):
       10.000004    0.000000    0.000000
        0.000000   10.000004    0.000000
        0.000000    0.000000   10.000004

outcell: Cell vector modules (Ang)   :   10.000004   10.000004   10.000004
outcell: Cell angles (23,13,12) (deg):     90.0000     90.0000     90.0000
outcell: Cell volume (Ang**3)        :   1000.0012
Gamma-point calculation with multiply-connected orbital pairs
Gamma-point calculation with multiply-connected orbital pairs
Folding of H and S implicitly performed
Folding of H and S implicitly performed
<dSpData1D:S at geom step 11
  <sparsity:sparsity for geom step 11
    nrows_g=26 nrows=26 sparsity=1.0000 nnzs=676, refcount: 7>
  <dData1D:(new from dSpData1D) n=676, refcount: 1>
refcount: 1>
new_DM -- step:    11
Re-using DM from previous geometries...
Number of DMs in history: 1
 DM extrapolation coefficients: 
1   1.00000
New DM after history re-use:
<dSpData2D:SpM extrapolated using coords
  <sparsity:sparsity for geom step 11
    nrows_g=26 nrows=26 sparsity=1.0000 nnzs=676, refcount: 9>
  <dData2D:(temp array for extrapolation) n=676 m=1, refcount: 1>
refcount: 1>
Note: For starting DM, Qtot, Tr[D*S] =         14.00000000         13.98158701
No. of atoms with KB's overlaping orbs in proc 0. Max # of overlaps:       4      26

InitMesh: MESH = 90 x 90 x 90 = 729000
InitMesh: Mesh cutoff (required, used) =   200.000   223.865 Ry
New grid distribution [1]: sub = 2

        iscf     Eharris(eV)        E_KS(eV)     FreeEng(eV)     dDmax    Ef(eV) dHmax(eV)
   scf:    1     -898.418464     -898.330781     -898.400093  0.012668 -5.723550  0.173030
   scf:    2     -898.321929     -898.328059     -898.397157  0.035356 -5.884558  0.083966
   scf:    3     -898.331011     -898.329708     -898.398934  0.011275 -5.864656  0.078960
   scf:    4     -898.330201     -898.330826     -898.400134  0.025148 -5.881311  0.029586
   scf:    5     -898.330907     -898.330927     -898.400242  0.006396 -5.883097  0.006654
   scf:    6     -898.330927     -898.330927     -898.400242  0.000049 -5.882982  0.006652
   scf:    7     -898.330937     -898.330933     -898.400248  0.000853 -5.882839  0.000679
   scf:    8     -898.330934     -898.330934     -898.400248  0.000255 -5.883022  0.000644

SCF Convergence by DM+H criterion
max |DM_out - DM_in|         :     0.0002547105
max |H_out - H_in|      (eV) :     0.0006436727
SCF cycle converged after 8 iterations

Using DM_out to compute the final energy and forces
No. of atoms with KB's overlaping orbs in proc 0. Max # of overlaps:       4      26

siesta: E_KS(eV) =             -898.3309

siesta: Atomic forces (eV/Ang):
----------------------------------------
   Tot    0.000161   -0.000772    0.000680
----------------------------------------
   Max    2.577949
   Res    1.287076    sqrt( Sum f_i^2 / 3N )
----------------------------------------
   Max    2.577949    constrained

Stress tensor Voigt[x,y,z,yz,xz,xy] (kbar):       -7.20       -0.82       -1.04       -0.61       -1.32       -1.16
(Free)E + p*V (eV/cell)     -896.5144
Target enthalpy (eV/cell)     -898.4002

siesta: Stress tensor (static) (eV/Ang**3):
        -0.001989   -0.000704   -0.000932
        -0.000704   -0.000248   -0.000363
        -0.000932   -0.000363   -0.000551

siesta: Pressure (static):          1.48867697  kBar

siesta: Stress tensor (total) (eV/Ang**3):
        -0.004496   -0.000721   -0.000827
        -0.000721   -0.000512   -0.000378
        -0.000827   -0.000378   -0.000650

siesta: Pressure (total):          3.02149561  kBar

siesta: Temp_ion =    4067.447 K

                     ====================================
                        Begin MD step =     12
                     ====================================

outcell: Unit cell vectors (Ang):
       10.000004    0.000000    0.000000
        0.000000   10.000004    0.000000
        0.000000    0.000000   10.000004

outcell: Cell vector modules (Ang)   :   10.000004   10.000004   10.000004
outcell: Cell angles (23,13,12) (deg):     90.0000     90.0000     90.0000
outcell: Cell volume (Ang**3)        :   1000.0012
<dSpData1D:S at geom step 12
  <sparsity:sparsity for geom step 12
    nrows_g=26 nrows=26 sparsity=1.0000 nnzs=676, refcount: 7>
  <dData1D:(new from dSpData1D) n=676, refcount: 1>
refcount: 1>
new_DM -- step:    12
Re-using DM from previous geometries...
Number of DMs in history: 1
 DM extrapolation coefficients: 
1   1.00000
New DM after history re-use:
<dSpData2D:SpM extrapolated using coords
  <sparsity:sparsity for geom step 12
    nrows_g=26 nrows=26 sparsity=1.0000 nnzs=676, refcount: 9>
  <dData2D:(temp array for extrapolation) n=676 m=1, refcount: 1>
refcount: 1>
Note: For starting DM, Qtot, Tr[D*S] =         14.00000000         13.94970685
No. of atoms with KB's overlaping orbs in proc 0. Max # of overlaps:       4      26

InitMesh: MESH = 90 x 90 x 90 = 729000
InitMesh: Mesh cutoff (required, used) =   200.000   223.865 Ry
New grid distribution [1]: sub = 2

        iscf     Eharris(eV)        E_KS(eV)     FreeEng(eV)     dDmax    Ef(eV) dHmax(eV)
   scf:    1     -898.439746     -898.469434     -898.538734  0.025238 -5.477366  0.563709
   scf:    2     -898.391749     -898.445606     -898.513396  0.100144 -5.966573  0.413622
   scf:    3     -898.475478     -898.462918     -898.531798  0.041359 -5.841069  0.315796
   scf:    4     -898.454272     -898.467382     -898.536415  0.081805 -5.917699  0.109594
   scf:    5     -898.466690     -898.470252     -898.539529  0.049931 -5.919181  0.034525
   scf:    6     -898.470915     -898.470750     -898.540064  0.011138 -5.929941  0.015421
   scf:    7     -898.470813     -898.470788     -898.540103  0.001918 -5.940259  0.002818
   scf:    8     -898.470795     -898.470794     -898.540108  0.001162 -5.938486  0.002238
   scf:    9     -898.470794     -898.470794     -898.540108  0.000406 -5.939760  0.001934
   scf:   10     -898.470794     -898.470794     -898.540108  0.000099 -5.939750  0.001775
   scf:   11     -898.470794     -898.470794     -898.540109  0.000208 -5.940247  0.000278

SCF Convergence by DM+H criterion
max |DM_out - DM_in|         :     0.0002080075
max |H_out - H_in|      (eV) :     0.0002781419
SCF cycle converged after 11 iterations

Using DM_out to compute the final energy and forces
No. of atoms with KB's overlaping orbs in proc 0. Max # of overlaps:       4      26

siesta: E_KS(eV) =             -898.4708

siesta: Atomic forces (eV/Ang):
----------------------------------------
   Tot   -0.002790   -0.001139   -0.000749
----------------------------------------
   Max    0.261718
   Res    0.130323    sqrt( Sum f_i^2 / 3N )
----------------------------------------
   Max    0.261718    constrained

Stress tensor Voigt[x,y,z,yz,xz,xy] (kbar):       -3.24       -0.51       -0.36       -0.16        0.03       -0.14
(Free)E + p*V (eV/cell)     -897.6836
Target enthalpy (eV/cell)     -898.5401

siesta: Stress tensor (static) (eV/Ang**3):
         0.000453    0.000069    0.000104
         0.000069    0.000041    0.000056
         0.000104    0.000056    0.000092

siesta: Pressure (static):         -0.31237873  kBar

siesta: Stress tensor (total) (eV/Ang**3):
        -0.002025   -0.000087    0.000020
        -0.000087   -0.000320   -0.000100
         0.000020   -0.000100   -0.000224

siesta: Pressure (total):          1.37233421  kBar

siesta: Temp_ion =    4404.009 K

                     ====================================
                        Begin MD step =     13
                     ====================================

outcell: Unit cell vectors (Ang):
       10.000004    0.000000    0.000000
        0.000000   10.000004    0.000000
        0.000000    0.000000   10.000004

outcell: Cell vector modules (Ang)   :   10.000004   10.000004   10.000004
outcell: Cell angles (23,13,12) (deg):     90.0000     90.0000     90.0000
outcell: Cell volume (Ang**3)        :   1000.0012
<dSpData1D:S at geom step 13
  <sparsity:sparsity for geom step 13
    nrows_g=26 nrows=26 sparsity=1.0000 nnzs=676, refcount: 7>
  <dData1D:(new from dSpData1D) n=676, refcount: 1>
refcount: 1>
new_DM -- step:    13
Re-using DM from previous geometries...
Number of DMs in history: 1
 DM extrapolation coefficients: 
1   1.00000
New DM after history re-use:
<dSpData2D:SpM extrapolated using coords
  <sparsity:sparsity for geom step 13
    nrows_g=26 nrows=26 sparsity=1.0000 nnzs=676, refcount: 9>
  <dData2D:(temp array for extrapolation) n=676 m=1, refcount: 1>
refcount: 1>
Note: For starting DM, Qtot, Tr[D*S] =         14.00000000         13.94389987
No. of atoms with KB's overlaping orbs in proc 0. Max # of overlaps:       4      26

InitMesh: MESH = 90 x 90 x 90 = 729000
InitMesh: Mesh cutoff (required, used) =   200.000   223.865 Ry
New grid distribution [1]: sub = 2

        iscf     Eharris(eV)        E_KS(eV)     FreeEng(eV)     dDmax    Ef(eV) dHmax(eV)
   scf:    1     -898.238421     -898.333782     -898.403071  0.025325 -5.479419  0.636247
   scf:    2     -898.223629     -898.300021     -898.366974  0.109803 -6.038440  0.438244
   scf:    3     -898.341926     -898.324228     -898.392837  0.045305 -5.902127  0.326176
   scf:    4     -898.315680     -898.332005     -898.400999  0.090520 -5.978420  0.111732
   scf:    5     -898.322375     -898.333247     -898.402369  0.064224 -5.973976  0.049619
   scf:    6     -898.336364     -898.335715     -898.405028  0.025245 -5.990036  0.018149
   scf:    7     -898.335838     -898.335787     -898.405101  0.001882 -6.002793  0.004028
   scf:    8     -898.335816     -898.335814     -898.405128  0.003088 -6.000417  0.002342
   scf:    9     -898.335814     -898.335814     -898.405129  0.000362 -6.001535  0.002509
   scf:   10     -898.335814     -898.335814     -898.405128  0.000343 -6.001484  0.002045
   scf:   11     -898.335814     -898.335814     -898.405128  0.000025 -6.001721  0.001381
   scf:   12     -898.335815     -898.335814     -898.405129  0.000068 -6.001806  0.001293
   scf:   13     -898.335815     -898.335815     -898.405129  0.000290 -6.001963  0.000554

SCF Convergence by DM+H criterion
max |DM_out - DM_in|         :     0.0002895670
max |H_out - H_in|      (eV) :     0.0005539720
SCF cycle converged after 13 iterations

Using DM_out to compute the final energy and forces
No. of atoms with KB's overlaping orbs in proc 0. Max # of overlaps:       4      26

siesta: E_KS(eV) =             -898.3358

siesta: Atomic forces (eV/Ang):
----------------------------------------
   Tot   -0.002009   -0.000245   -0.000582
----------------------------------------
   Max    1.647171
   Res    0.926405    sqrt( Sum f_i^2 / 3N )
----------------------------------------
   Max    1.647171    constrained

Stress tensor Voigt[x,y,z,yz,xz,xy] (kbar):       -0.74       -0.14        0.45        0.37        1.06        0.70
(Free)E + p*V (eV/cell)     -898.3159
Target enthalpy (eV/cell)     -898.4051

siesta: Stress tensor (static) (eV/Ang**3):
         0.002123    0.000678    0.000866
         0.000678    0.000320    0.000456
         0.000866    0.000456    0.000705

siesta: Pressure (static):         -1.68121802  kBar

siesta: Stress tensor (total) (eV/Ang**3):
        -0.000460    0.000439    0.000663
         0.000439   -0.000089    0.000229
         0.000663    0.000229    0.000281

siesta: Pressure (total):          0.14289709  kBar

siesta: Temp_ion =    4106.927 K

                     ====================================
                        Begin MD step =     14
                     ====================================

outcell: Unit cell vectors (Ang):
       10.000004    0.000000    0.000000
        0.000000   10.000004    0.000000
        0.000000    0.000000   10.000004

outcell: Cell vector modules (Ang)   :   10.000004   10.000004   10.000004
outcell: Cell angles (23,13,12) (deg):     90.0000     90.0000     90.0000
outcell: Cell volume (Ang**3)        :   1000.0012
<dSpData1D:S at geom step 14
  <sparsity:sparsity for geom step 14
    nrows_g=26 nrows=26 sparsity=1.0000 nnzs=676, refcount: 7>
  <dData1D:(new from dSpData1D) n=676, refcount: 1>
refcount: 1>
new_DM -- step:    14
Re-using DM from previous geometries...
Number of DMs in history: 1
 DM extrapolation coefficients: 
1   1.00000
New DM after history re-use:
<dSpData2D:SpM extrapolated using coords
  <sparsity:sparsity for geom step 14
    nrows_g=26 nrows=26 sparsity=1.0000 nnzs=676, refcount: 9>
  <dData2D:(temp array for extrapolation) n=676 m=1, refcount: 1>
refcount: 1>
Note: For starting DM, Qtot, Tr[D*S] =         14.00000000         13.96362278
No. of atoms with KB's overlaping orbs in proc 0. Max # of overlaps:       4      26

InitMesh: MESH = 90 x 90 x 90 = 729000
InitMesh: Mesh cutoff (required, used) =   200.000   223.865 Ry
New grid distribution [1]: sub = 2

        iscf     Eharris(eV)        E_KS(eV)     FreeEng(eV)     dDmax    Ef(eV) dHmax(eV)
   scf:    1     -898.132434     -898.171881     -898.241161  0.016750 -5.718081  0.382677
   scf:    2     -898.065088     -898.138671     -898.205180  0.130854 -6.086680  0.145877
   scf:    3     -898.176682     -898.160331     -898.228656  0.047507 -6.017665  0.104364
   scf:    4     -898.171167     -898.172782     -898.242086  0.077358 -6.057876  0.015055
   scf:    5     -898.171252     -898.172406     -898.241697  0.018119 -6.051486  0.023240
   scf:    6     -898.173015     -898.172834     -898.242148  0.010171 -6.057612  0.009733
   scf:    7     -898.172672     -898.172833     -898.242137  0.007695 -6.059714  0.006410
   scf:    8     -898.172848     -898.172876     -898.242190  0.005448 -6.060746  0.001691
   scf:    9     -898.172877     -898.172877     -898.242191  0.000327 -6.060799  0.001959
   scf:   10     -898.172880     -898.172879     -898.242192  0.000919 -6.061792  0.001357
   scf:   11     -898.172879     -898.172879     -898.242192  0.000014 -6.061847  0.001293
   scf:   12     -898.172879     -898.172879     -898.242192  0.000135 -6.062060  0.000827

SCF Convergence by DM+H criterion
max |DM_out - DM_in|         :     0.0001345965
max |H_out - H_in|      (eV) :     0.0008273067
SCF cycle converged after 12 iterations

Using DM_out to compute the final energy and forces
No. of atoms with KB's overlaping orbs in proc 0. Max # of overlaps:       4      26

siesta: E_KS(eV) =             -898.1729

siesta: Atomic forces (eV/Ang):
----------------------------------------
   Tot   -0.001741    0.000287    0.000017
----------------------------------------
   Max    2.083021
   Res    1.258416    sqrt( Sum f_i^2 / 3N )
----------------------------------------
   Max    2.083021    constrained

Stress tensor Voigt[x,y,z,yz,xz,xy] (kbar):        0.84        0.23        1.25        0.88        1.79        1.37
(Free)E + p*V (eV/cell)     -898.7246
Target enthalpy (eV/cell)     -898.2422

siesta: Stress tensor (static) (eV/Ang**3):
         0.003050    0.001023    0.001215
         0.001023    0.000500    0.000700
         0.001215    0.000700    0.001082

siesta: Pressure (static):         -2.47402562  kBar

siesta: Stress tensor (total) (eV/Ang**3):
         0.000525    0.000857    0.001115
         0.000857    0.000144    0.000551
         0.001115    0.000551    0.000778

siesta: Pressure (total):         -0.77296028  kBar

siesta: Temp_ion =    3712.984 K

                     ====================================
                        Begin MD step =     15
                     ====================================

outcell: Unit cell vectors (Ang):
       10.000004    0.000000    0.000000
        0.000000   10.000004    0.000000
        0.000000    0.000000   10.000004

outcell: Cell vector modules (Ang)   :   10.000004   10.000004   10.000004
outcell: Cell angles (23,13,12) (deg):     90.0000     90.0000     90.0000
outcell: Cell volume (Ang**3)        :   1000.0012
<dSpData1D:S at geom step 15
  <sparsity:sparsity for geom step 15
    nrows_g=26 nrows=26 sparsity=1.0000 nnzs=676, refcount: 7>
  <dData1D:(new from dSpData1D) n=676, refcount: 1>
refcount: 1>
new_DM -- step:    15
Re-using DM from previous geometries...
Number of DMs in history: 1
 DM extrapolation coefficients: 
1   1.00000
New DM after history re-use:
<dSpData2D:SpM extrapolated using coords
  <sparsity:sparsity for geom step 15
    nrows_g=26 nrows=26 sparsity=1.0000 nnzs=676, refcount: 9>
  <dData2D:(temp array for extrapolation) n=676 m=1, refcount: 1>
refcount: 1>
No. of atoms with KB's overlaping orbs in proc 0. Max # of overlaps:       4      26

InitMesh: MESH = 90 x 90 x 90 = 729000
InitMesh: Mesh cutoff (required, used) =   200.000   223.865 Ry
New grid distribution [1]: sub = 2

        iscf     Eharris(eV)        E_KS(eV)     FreeEng(eV)     dDmax    Ef(eV) dHmax(eV)
   scf:    1     -898.227713     -898.143074     -898.212359  0.012464 -6.063768  0.128316
   scf:    2     -898.014201     -898.102980     -898.170348  0.119254 -6.108585  0.514188
   scf:    3     -898.149839     -898.143852     -898.213164  0.102203 -6.072180  0.042204
   scf:    4     -898.143304     -898.143895     -898.213179  0.017269 -6.080729  0.043129
   scf:    5     -898.143807     -898.144061     -898.213375  0.014067 -6.086672  0.030123
   scf:    6     -898.144051     -898.144067     -898.213381  0.000943 -6.101979  0.020897
   scf:    7     -898.144151     -898.144142     -898.213454  0.005299 -6.114865  0.001282
   scf:    8     -898.144142     -898.144142     -898.213454  0.000112 -6.114876  0.001000

SCF Convergence by DM+H criterion
max |DM_out - DM_in|         :     0.0001116840
max |H_out - H_in|      (eV) :     0.0009999491
SCF cycle converged after 8 iterations

Using DM_out to compute the final energy and forces
No. of atoms with KB's overlaping orbs in proc 0. Max # of overlaps:       4      26

siesta: E_KS(eV) =             -898.1441

siesta: Atomic forces (eV/Ang):
----------------------------------------
   Tot   -0.000475    0.000535    0.000345
----------------------------------------
   Max    2.047607
   Res    1.346388    sqrt( Sum f_i^2 / 3N )
----------------------------------------
   Max    2.047607    constrained

Stress tensor Voigt[x,y,z,yz,xz,xy] (kbar):        1.54        0.48        1.75        1.20        2.02        1.74
(Free)E + p*V (eV/cell)     -898.9966
Target enthalpy (eV/cell)     -898.2135

siesta: Stress tensor (static) (eV/Ang**3):
         0.003444    0.001150    0.001235
         0.001151    0.000574    0.000780
         0.001234    0.000780    0.001211

siesta: Pressure (static):         -2.79268512  kBar

siesta: Stress tensor (total) (eV/Ang**3):
         0.000959    0.001083    0.001264
         0.001083    0.000301    0.000750
         0.001264    0.000750    0.001090

siesta: Pressure (total):         -1.25478877  kBar

siesta: Temp_ion =    3642.172 K

                     ====================================
                        Begin MD step =     16
                     ====================================

outcell: Unit cell vectors (Ang):
       10.000004    0.000000    0.000000
        0.000000   10.000004    0.000000
        0.000000    0.000000   10.000004

outcell: Cell vector modules (Ang)   :   10.000004   10.000004   10.000004
outcell: Cell angles (23,13,12) (deg):     90.0000     90.0000     90.0000
outcell: Cell volume (Ang**3)        :   1000.0012
<dSpData1D:S at geom step 16
  <sparsity:sparsity for geom step 16
    nrows_g=26 nrows=26 sparsity=1.0000 nnzs=676, refcount: 7>
  <dData1D:(new from dSpData1D) n=676, refcount: 1>
refcount: 1>
new_DM -- step:    16
Re-using DM from previous geometries...
Number of DMs in history: 1
 DM extrapolation coefficients: 
1   1.00000
New DM after history re-use:
<dSpData2D:SpM extrapolated using coords
  <sparsity:sparsity for geom step 16
    nrows_g=26 nrows=26 sparsity=1.0000 nnzs=676, refcount: 9>
  <dData2D:(temp array for extrapolation) n=676 m=1, refcount: 1>
refcount: 1>
Note: For starting DM, Qtot, Tr[D*S] =         14.00000000         14.03055083
No. of atoms with KB's overlaping orbs in proc 0. Max # of overlaps:       4      26

InitMesh: MESH = 90 x 90 x 90 = 729000
InitMesh: Mesh cutoff (required, used) =   200.000   223.865 Ry
New grid distribution [1]: sub = 2

        iscf     Eharris(eV)        E_KS(eV)     FreeEng(eV)     dDmax    Ef(eV) dHmax(eV)
   scf:    1     -898.466833     -898.265480     -898.334765  0.015882 -6.412727  0.519355
   scf:    2     -897.889264     -898.149506     -898.216649  0.120235 -6.107942  1.208354
   scf:    3     -898.304184     -898.268422     -898.337698  0.095266 -6.330855  0.326225
   scf:    4     -898.249790     -898.264761     -898.333510  0.066607 -6.198890  0.084376
   scf:    5     -898.270039     -898.267654     -898.336672  0.014616 -6.183540  0.065899
   scf:    6     -898.270820     -898.270661     -898.339971  0.034761 -6.174382  0.023975
   scf:    7     -898.270234     -898.270528     -898.339814  0.007536 -6.154405  0.013326
   scf:    8     -898.270699     -898.270713     -898.340024  0.009136 -6.157845  0.001215
   scf:    9     -898.270714     -898.270714     -898.340025  0.000436 -6.157352  0.000766
   scf:   10     -898.270714     -898.270714     -898.340025  0.000150 -6.157452  0.000675

SCF Convergence by DM+H criterion
max |DM_out - DM_in|         :     0.0001498759
max |H_out - H_in|      (eV) :     0.0006753614
SCF cycle converged after 10 iterations

Using DM_out to compute the final energy and forces
No. of atoms with KB's overlaping orbs in proc 0. Max # of overlaps:       4      26

siesta: E_KS(eV) =             -898.2707

siesta: Atomic forces (eV/Ang):
----------------------------------------
   Tot   -0.001039    0.000438    0.000460
----------------------------------------
   Max    1.662555
   Res    1.234642    sqrt( Sum f_i^2 / 3N )
----------------------------------------
   Max    1.662555    constrained

Stress tensor Voigt[x,y,z,yz,xz,xy] (kbar):        1.29        0.48        1.65        1.13        1.58        1.65
(Free)E + p*V (eV/cell)     -899.0523
Target enthalpy (eV/cell)     -898.3400

siesta: Stress tensor (static) (eV/Ang**3):
         0.003391    0.001066    0.000947
         0.001066    0.000523    0.000668
         0.000947    0.000668    0.001048

siesta: Pressure (static):         -2.64982691  kBar

siesta: Stress tensor (total) (eV/Ang**3):
         0.000803    0.001029    0.000989
         0.001029    0.000301    0.000707
         0.000989    0.000707    0.001033

siesta: Pressure (total):         -1.14126044  kBar

siesta: Temp_ion =    3951.548 K

                     ====================================
                        Begin MD step =     17
                     ====================================

outcell: Unit cell vectors (Ang):
       10.000004    0.000000    0.000000
        0.000000   10.000004    0.000000
        0.000000    0.000000   10.000004

outcell: Cell vector modules (Ang)   :   10.000004   10.000004   10.000004
outcell: Cell angles (23,13,12) (deg):     90.0000     90.0000     90.0000
outcell: Cell volume (Ang**3)        :   1000.0012
<dSpData1D:S at geom step 17
  <sparsity:sparsity for geom step 17
    nrows_g=26 nrows=26 sparsity=1.0000 nnzs=676, refcount: 7>
  <dData1D:(new from dSpData1D) n=676, refcount: 1>
refcount: 1>
new_DM -- step:    17
Re-using DM from previous geometries...
Number of DMs in history: 1
 DM extrapolation coefficients: 
1   1.00000
New DM after history re-use:
<dSpData2D:SpM extrapolated using coords
  <sparsity:sparsity for geom step 17
    nrows_g=26 nrows=26 sparsity=1.0000 nnzs=676, refcount: 9>
  <dData2D:(temp array for extrapolation) n=676 m=1, refcount: 1>
refcount: 1>
[...]

        iscf     Eharris(eV)        E_KS(eV)     FreeEng(eV)     dDmax    Ef(eV) dHmax(eV)
   scf:    1     -897.975175     -898.330720     -898.400030  0.026868 -5.429972  0.745504
   scf:    2     -898.286358     -898.318760     -898.387346  0.059989 -6.095115  0.393606
   scf:    3     -898.336588     -898.328784     -898.397848  0.023346 -5.959777  0.273736
   scf:    4     -898.325518     -898.332471     -898.401645  0.057153 -6.012246  0.065394
   scf:    5     -898.333057     -898.334212     -898.403513  0.031777 -6.014563  0.047225
   scf:    6     -898.334359     -898.334301     -898.403612  0.003357 -6.023492  0.048173
   scf:    7     -898.334706     -898.334564     -898.403879  0.003241 -6.047462  0.002232
   scf:    8     -898.334565     -898.334565     -898.403879  0.000227 -6.046576  0.002906
   scf:    9     -898.334563     -898.334564     -898.403879  0.000662 -6.048400  0.001591
   scf:   10     -898.334564     -898.334564     -898.403879  0.000135 -6.048562  0.001218
   scf:   11     -898.334565     -898.334565     -898.403879  0.000196 -6.048694  0.001323
   scf:   12     -898.334565     -898.334565     -898.403880  0.000405 -6.048756  0.000843
   scf:   13     -898.334565     -898.334565     -898.403880  0.000155 -6.049016  0.000129

SCF Convergence by DM+H criterion
max |DM_out - DM_in|         :     0.0001553542
max |H_out - H_in|      (eV) :     0.0001286257
SCF cycle converged after 13 iterations

Using DM_out to compute the final energy and forces
No. of atoms with KB's overlaping orbs in proc 0. Max # of overlaps:       4      18

siesta: E_KS(eV) =             -898.3346

siesta: Atomic forces (eV/Ang):
----------------------------------------
   Tot    0.005205    0.009234   -0.003619
----------------------------------------
   Max    2.230616
   Res    1.101262    sqrt( Sum f_i^2 / 3N )
----------------------------------------
   Max    2.230616    constrained

Stress tensor Voigt[x,y,z,yz,xz,xy] (kbar):       -2.92        3.90        1.20       -0.78       -1.09        1.55
(Free)E + p*V (eV/cell)     -898.8581
Target enthalpy (eV/cell)     -898.4039

siesta: Stress tensor (static) (eV/Ang**3):
         0.000600    0.000525   -0.000747
         0.000525    0.002856   -0.000682
        -0.000747   -0.000682    0.000953

siesta: Pressure (static):         -2.35456746  kBar

siesta: Stress tensor (total) (eV/Ang**3):
        -0.001820    0.000968   -0.000683
         0.000968    0.002435   -0.000489
        -0.000683   -0.000489    0.000748

siesta: Pressure (total):         -0.72772775  kBar

siesta: Temp_ion =    4052.530 K

                     ====================================
                        Begin MD step =    198
                     ====================================

outcell: Unit cell vectors (Ang):
       10.000004    0.000000    0.000000
        0.000000   10.000004    0.000000
        0.000000    0.000000   10.000004

outcell: Cell vector modules (Ang)   :   10.000004   10.000004   10.000004
outcell: Cell angles (23,13,12) (deg):     90.0000     90.0000     90.0000
outcell: Cell volume (Ang**3)        :   1000.0012
<dSpData1D:S at geom step 198
  <sparsity:sparsity for geom step 198
    nrows_g=26 nrows=26 sparsity=.7870 nnzs=532, refcount: 7>
  <dData1D:(new from dSpData1D) n=532, refcount: 1>
refcount: 1>
new_DM -- step:   198
Re-using DM from previous geometries...
Number of DMs in history: 1
 DM extrapolation coefficients: 
1   1.00000
New DM after history re-use:
<dSpData2D:SpM extrapolated using coords
  <sparsity:sparsity for geom step 198
    nrows_g=26 nrows=26 sparsity=.7870 nnzs=532, refcount: 9>
  <dData2D:(temp array for extrapolation) n=532 m=1, refcount: 1>
refcount: 1>
Note: For starting DM, Qtot, Tr[D*S] =         14.00000000         13.94584198
No. of atoms with KB's overlaping orbs in proc 0. Max # of overlaps:       4      18

InitMesh: MESH = 90 x 90 x 90 = 729000
InitMesh: Mesh cutoff (required, used) =   200.000   223.865 Ry
New grid distribution [1]: sub = 2

        iscf     Eharris(eV)        E_KS(eV)     FreeEng(eV)     dDmax    Ef(eV) dHmax(eV)
   scf:    1     -897.737713     -898.150075     -898.219387  0.024126 -5.420552  0.700620
   scf:    2     -898.123613     -898.143788     -898.212711  0.053597 -6.047461  0.322376
   scf:    3     -898.155215     -898.150158     -898.219336  0.020538 -5.924455  0.212265
   scf:    4     -898.148050     -898.152446     -898.221667  0.054054 -5.964962  0.062567
   scf:    5     -898.152997     -898.153666     -898.222973  0.031412 -5.968810  0.046963
   scf:    6     -898.153770     -898.153733     -898.223047  0.003947 -5.988286  0.046122
   scf:    7     -898.154078     -898.153952     -898.223267  0.002445 -5.998883  0.001926
   scf:    8     -898.153952     -898.153952     -898.223267  0.000070 -5.998536  0.002120
   scf:    9     -898.153952     -898.153952     -898.223267  0.000229 -6.000399  0.000307

SCF Convergence by DM+H criterion
max |DM_out - DM_in|         :     0.0002286127
max |H_out - H_in|      (eV) :     0.0003072405
SCF cycle converged after 9 iterations

Using DM_out to compute the final energy and forces
No. of atoms with KB's overlaping orbs in proc 0. Max # of overlaps:       4      18

siesta: E_KS(eV) =             -898.1540

siesta: Atomic forces (eV/Ang):
----------------------------------------
   Tot    0.004885    0.011119   -0.000381
----------------------------------------
   Max    2.055517
   Res    1.346997    sqrt( Sum f_i^2 / 3N )
----------------------------------------
   Max    2.055517    constrained

Stress tensor Voigt[x,y,z,yz,xz,xy] (kbar):       -1.92        2.90        2.42       -0.45       -2.19        1.06
(Free)E + p*V (eV/cell)     -898.9324
Target enthalpy (eV/cell)     -898.2233

siesta: Stress tensor (static) (eV/Ang**3):
         0.001282    0.000295   -0.001484
         0.000295    0.002246   -0.000474
        -0.001484   -0.000474    0.001743

siesta: Pressure (static):         -2.81467546  kBar

siesta: Stress tensor (total) (eV/Ang**3):
        -0.001197    0.000659   -0.001368
         0.000659    0.001812   -0.000280
        -0.001368   -0.000280    0.001512

siesta: Pressure (total):         -1.13614121  kBar

siesta: Temp_ion =    3635.889 K

                     ====================================
                        Begin MD step =    199
                     ====================================

outcell: Unit cell vectors (Ang):
       10.000004    0.000000    0.000000
        0.000000   10.000004    0.000000
        0.000000    0.000000   10.000004

outcell: Cell vector modules (Ang)   :   10.000004   10.000004   10.000004
outcell: Cell angles (23,13,12) (deg):     90.0000     90.0000     90.0000
outcell: Cell volume (Ang**3)        :   1000.0012
<dSpData1D:S at geom step 199
  <sparsity:sparsity for geom step 199
    nrows_g=26 nrows=26 sparsity=.7751 nnzs=524, refcount: 7>
  <dData1D:(new from dSpData1D) n=524, refcount: 1>
refcount: 1>
new_DM -- step:   199
Re-using DM from previous geometries...
Number of DMs in history: 1
 DM extrapolation coefficients: 
1   1.00000
New DM after history re-use:
<dSpData2D:SpM extrapolated using coords
  <sparsity:sparsity for geom step 199
    nrows_g=26 nrows=26 sparsity=.7751 nnzs=524, refcount: 9>
  <dData2D:(temp array for extrapolation) n=524 m=1, refcount: 1>
refcount: 1>
Note: For starting DM, Qtot, Tr[D*S] =         14.00000000         13.97303395
No. of atoms with KB's overlaping orbs in proc 0. Max # of overlaps:       4      18

InitMesh: MESH = 90 x 90 x 90 = 729000
InitMesh: Mesh cutoff (required, used) =   200.000   223.865 Ry
New grid distribution [1]: sub = 2

        iscf     Eharris(eV)        E_KS(eV)     FreeEng(eV)     dDmax    Ef(eV) dHmax(eV)
   scf:    1     -897.700428     -898.030492     -898.099806  0.024839 -5.633536  0.387148
   scf:    2     -898.024006     -898.029549     -898.098751  0.024621 -5.978924  0.184043
   scf:    3     -898.033195     -898.031592     -898.100869  0.009772 -5.903051  0.105615
   scf:    4     -898.030849     -898.032076     -898.101366  0.024068 -5.919721  0.038939
   scf:    5     -898.032217     -898.032425     -898.101736  0.014560 -5.924063  0.029719
   scf:    6     -898.032493     -898.032468     -898.101783  0.002715 -5.950189  0.025943
   scf:    7     -898.032570     -898.032533     -898.101848  0.000855 -5.943764  0.001035
   scf:    8     -898.032532     -898.032533     -898.101847  0.000324 -5.943984  0.000913
   scf:    9     -898.032533     -898.032533     -898.101847  0.000040 -5.944372  0.000573

SCF Convergence by DM+H criterion
max |DM_out - DM_in|         :     0.0000401061
max |H_out - H_in|      (eV) :     0.0005733343
SCF cycle converged after 9 iterations

Using DM_out to compute the final energy and forces
No. of atoms with KB's overlaping orbs in proc 0. Max # of overlaps:       4      18

siesta: E_KS(eV) =             -898.0325

siesta: Atomic forces (eV/Ang):
----------------------------------------
   Tot   -0.001270    0.009749   -0.000153
----------------------------------------
   Max    2.308442
   Res    1.391473    sqrt( Sum f_i^2 / 3N )
----------------------------------------
   Max    2.308442    constrained

Stress tensor Voigt[x,y,z,yz,xz,xy] (kbar):       -1.01        1.65        2.90       -0.21       -2.91        0.72
(Free)E + p*V (eV/cell)     -898.8393
Target enthalpy (eV/cell)     -898.1018

siesta: Stress tensor (static) (eV/Ang**3):
         0.001635    0.000141   -0.001751
         0.000141    0.001493   -0.000307
        -0.001751   -0.000307    0.001904

siesta: Pressure (static):         -2.68747490  kBar

siesta: Stress tensor (total) (eV/Ang**3):
        -0.000629    0.000446   -0.001816
         0.000446    0.001033   -0.000130
        -0.001816   -0.000130    0.001808

siesta: Pressure (total):         -1.18151075  kBar

siesta: Temp_ion =    3339.124 K

                     ====================================
                        Begin MD step =    200
                     ====================================

outcell: Unit cell vectors (Ang):
       10.000004    0.000000    0.000000
        0.000000   10.000004    0.000000
        0.000000    0.000000   10.000004

outcell: Cell vector modules (Ang)   :   10.000004   10.000004   10.000004
outcell: Cell angles (23,13,12) (deg):     90.0000     90.0000     90.0000
outcell: Cell volume (Ang**3)        :   1000.0012
<dSpData1D:S at geom step 200
  <sparsity:sparsity for geom step 200
    nrows_g=26 nrows=26 sparsity=.7751 nnzs=524, refcount: 7>
  <dData1D:(new from dSpData1D) n=524, refcount: 1>
refcount: 1>
new_DM -- step:   200
Re-using DM from previous geometries...
Number of DMs in history: 1
 DM extrapolation coefficients: 
1   1.00000
New DM after history re-use:
<dSpData2D:SpM extrapolated using coords
  <sparsity:sparsity for geom step 200
    nrows_g=26 nrows=26 sparsity=.7751 nnzs=524, refcount: 9>
  <dData2D:(temp array for extrapolation) n=524 m=1, refcount: 1>
refcount: 1>
No. of atoms with KB's overlaping orbs in proc 0. Max # of overlaps:       4      18

InitMesh: MESH = 90 x 90 x 90 = 729000
InitMesh: Mesh cutoff (required, used) =   200.000   223.865 Ry
New grid distribution [1]: sub = 2

        iscf     Eharris(eV)        E_KS(eV)     FreeEng(eV)     dDmax    Ef(eV) dHmax(eV)
   scf:    1     -897.899630     -898.079149     -898.148463  0.026264 -5.933890  0.075373
   scf:    2     -898.074853     -898.078101     -898.147304  0.029642 -5.898660  0.058157
   scf:    3     -898.080257     -898.079506     -898.148806  0.016977 -5.914147  0.039373
   scf:    4     -898.079522     -898.079692     -898.149004  0.013661 -5.909087  0.030278
   scf:    5     -898.079667     -898.079707     -898.149022  0.004606 -5.895223  0.023257
   scf:    6     -898.079700     -898.079711     -898.149025  0.002579 -5.893345  0.017666
   scf:    7     -898.079722     -898.079720     -898.149035  0.001566 -5.884095  0.000387
   scf:    8     -898.079720     -898.079720     -898.149035  0.000144 -5.883915  0.000317

SCF Convergence by DM+H criterion
max |DM_out - DM_in|         :     0.0001438190
max |H_out - H_in|      (eV) :     0.0003165070
SCF cycle converged after 8 iterations

Using DM_out to compute the final energy and forces
No. of atoms with KB's overlaping orbs in proc 0. Max # of overlaps:       4      18

siesta: E_KS(eV) =             -898.0797

siesta: Atomic forces (eV/Ang):
----------------------------------------
   Tot   -0.002096    0.005929    0.000678
----------------------------------------
   Max    2.200708
   Res    1.278534    sqrt( Sum f_i^2 / 3N )
----------------------------------------
   Max    2.200708    constrained

Stress tensor Voigt[x,y,z,yz,xz,xy] (kbar):       -0.59        0.24        2.55        0.01       -2.96        0.52
(Free)E + p*V (eV/cell)     -898.6075
Target enthalpy (eV/cell)     -898.1490

siesta: Stress tensor (static) (eV/Ang**3):
         0.001671    0.000042   -0.001649
         0.000042    0.000641   -0.000134
        -0.001649   -0.000134    0.001654

siesta: Pressure (static):         -2.11755726  kBar

siesta: Stress tensor (total) (eV/Ang**3):
        -0.000369    0.000327   -0.001849
         0.000327    0.000152    0.000003
        -0.001850    0.000003    0.001593

siesta: Pressure (total):         -0.73451159  kBar

siesta: Temp_ion =    3457.056 K

coxmol: Writing XMOL coordinates into file xoc.xyz                                                                                                                                                                                                                             

siesta: Program's energy decomposition (eV):
siesta: Ebs     =      -199.231958
siesta: Eions   =      1581.702395
siesta: Ena     =       337.315257
siesta: Ekin    =       622.746609
siesta: Enl     =       -87.508237
siesta: Eso     =         0.000000
siesta: Edftu   =         0.000000
siesta: DEna    =        13.620177
siesta: DUscf   =         0.974672
siesta: DUext   =         0.000000
siesta: Ex      =      -189.710839
siesta: Ec      =       -13.814964
siesta: Exc     =      -203.525803
siesta: EbV     =         0.000000
siesta: eta*DQ  =         0.000000
siesta: Emadel  =         0.000000
siesta: Emeta   =         0.000000
siesta: Emolmec =         0.000000
siesta: Ekinion =         1.340577
siesta: Eharris =      -896.739143
siesta: Etot    =      -896.739143
siesta: FreeEng =      -896.808458

siesta: Final energy (eV):
siesta:  Band Struct. =    -199.231958
siesta:       Kinetic =     622.746609
siesta:       Hartree =     852.424188
siesta:         Edftu =       0.000000
siesta:       Eso     =       0.000000
siesta:    Ext. field =       0.000000
siesta:         Exch. =    -189.710839
siesta:         Corr. =     -13.814964
siesta:     Bulk bias =       0.000000
siesta:   Exch.-corr. =    -203.525803
siesta:  Ion-electron =   -2267.405336
siesta:       Ion-ion =      97.680622
siesta:       Ekinion =       1.340577
siesta: D3 dispersion =       0.000000
siesta:         Total =    -896.739143
siesta:         Fermi =      -5.883915

siesta: Atomic forces (eV/Ang):
siesta:      1   -0.068445   -0.505612    0.135230
siesta:      2    0.065762    0.511175   -0.135245
siesta:      3    2.200708   -0.053601   -2.163427
siesta:      4   -2.200121    0.053966    2.164119
siesta: ----------------------------------------
siesta:    Tot   -0.002096    0.005929    0.000678

siesta: Stress tensor (static) (eV/Ang**3):
siesta:     0.001671    0.000042   -0.001649
siesta:     0.000042    0.000641   -0.000134
siesta:    -0.001649   -0.000134    0.001654

siesta: Cell volume =       1000.001196 Ang**3

siesta: Pressure (static):
siesta:                Solid            Molecule  Units
siesta:          -0.00001439         -0.00000019  Ry/Bohr**3
siesta:          -0.00132168         -0.00001763  eV/Ang**3
siesta:          -2.11755726         -0.02824967  kBar
(Free)E+ p_basis*V_orbitals  =        -897.390326
(Free)Eharris+ p_basis*V_orbitals  =        -897.390326

siesta: Electric dipole (a.u.)  =   -0.100031   -0.100031    0.000694
siesta: Electric dipole (Debye) =   -0.254253   -0.254253    0.001763

cite: Please see "xoc.bib" for an exhaustive BiBTeX file.
cite: Please clearly indicate Siesta version in published work: 5.2.1
cite: This calculation has made use of the following articles
cite: which are encouraged to be cited in a published work.
        Primary SIESTA paper
          DOI: www.doi.org/10.1088/0953-8984/14/11/302


timer: Elapsed wall time (sec) =     351.212
timer: CPU execution times (sec):

Routine            Calls   Time/call    Tot.time        %
siesta                 1    1418.454    1418.454   100.00
Setup                  1       1.090       1.090     0.08
bands                  1       0.000       0.000     0.00
KSV_init               1       0.000       0.000     0.00
IterGeom             200       7.087    1417.364    99.92
geom_init            200       0.210      41.994     2.96
state_init           200       0.001       0.136     0.01
hsparse              200       0.000       0.009     0.00
overlap              200       0.000       0.088     0.01
Setup_H0             200       0.099      19.799     1.40
naefs                400       0.000       0.006     0.00
dnaefs               400       0.000       0.005     0.00
MolMec               400       0.000       0.000     0.00
kinefsm              400       0.000       0.112     0.01
nlefsm               400       0.001       0.585     0.04
DHSCF_Init           200       0.096      19.213     1.35
DHSCF1               200       0.008       1.585     0.11
InitMesh             200       0.008       1.582     0.11
INITMESH             200       0.000       0.001     0.00
DHSCF2               200       0.088      17.628     1.24
REMESH               200       0.004       0.799     0.06
REORD               8556       0.002      14.633     1.03
PHION                200       0.046       9.170     0.65
COMM_BSC           11712       0.002      17.921     1.26
POISON              2978       0.137     408.850    28.82
fft                 5956       0.049     291.790    20.57
setup_H             2578       0.527    1358.660    95.78
DHSCF               2778       0.501    1392.322    98.16
DHSCF3              2778       0.496    1378.752    97.20
rhoofd              2778       0.028      77.934     5.49
XC                  2778       0.275     765.075    53.94
GXC-CellXC          2778       0.264     732.345    51.63
gridxc@cellXC       2778       0.264     732.288    51.63
vmat                2778       0.004      10.214     0.72
IterSCF             2378       0.563    1339.583    94.44
compute_dm          2378       0.001       2.667     0.19
diagon              2378       0.001       2.634     0.19
r-eigvec            2378       0.001       2.300     0.16
r-buildHS           2378       0.000       0.006     0.00
rdiag               2378       0.001       2.283     0.16
rdiag1              2378       0.000       0.012     0.00
rdiag2              2378       0.000       0.028     0.00
rdiag3              2378       0.001       2.121     0.15
rdiag4              2378       0.000       0.089     0.01
r-buildD            2378       0.000       0.217     0.02
MIXER               2178       0.000       0.056     0.00
PostSCF              200       0.178      35.684     2.52
FINAL_HF             200       0.178      35.681     2.52
DHSCF4               200       0.068      13.563     0.96
dfscf                200       0.050      10.061     0.71
overfsm              200       0.000       0.030     0.00
writeHSX             200       0.000       0.017     0.00
state_analysis       200       0.000       0.021     0.00
siesta_move          200       0.000       0.047     0.00
Analysis               1       0.000       0.000     0.00
optical                1       0.000       0.000     0.00
  

>> End of run:  24-MAR-2025  16:33:42
Job completed
Job completed
