Executable      : siesta
Version         : 5.2.1
Architecture    : x86_64
Compiler version: GNU-13.3.0
Compiler flags  : -march=nocona -mtune=haswell -ftree-vectorize -fPIC -fstack-protector-strong -fno-plt -O2 -ffunction-sections -pipe -isystem <prefix>/include -I<prefix>/_build_env/include -fdebug-prefix-map=<prefix>/work=/usr/local/src/conda/siesta-5.2.1 -fdebug-prefix-map=<prefix>=/usr/local/src/conda-prefix -I<prefix>/lib -fallow-argument-mismatch -O3
Parallelisations: none
NetCDF support
NetCDF-4 support
Lua support
DFT-D3 support

Runtime information:
* Directory : /home/samba/homes/convidat/Simulacions/0.3
* Running in serial mode.
>> Start of run:  24-MAR-2025  17:10:51

                           *********************** 
                           *  WELCOME TO SIESTA  * 
                           *********************** 

 NOTE: Siesta V5 introduces some new defaults for basis-set generation
 NOTE: which might lead to slightly different numerical results.
 NOTE: Please see the manual for full details and compatibility measures.


reinit: Reading from file xoc.fdf

reinit: -----------------------------------------------------------------------
reinit: System Name: H2 + O2 -> H2O2 reaction
reinit: -----------------------------------------------------------------------
reinit: System Label: xoc
reinit: -----------------------------------------------------------------------

initatom: Reading input for the pseudopotentials and atomic orbitals ----------
Species number:   1 Atomic number:    8 Label: O
Species number:   2 Atomic number:    1 Label: H

Ground state valence configuration (from tables):   2s02  2p04  3d00  4f00
Ground state valence configuration (from tables):   1s01  2p00  3d00  4f00

---- Processing specs for species: O
Reading pseudopotential information in formatted form from:
  O.psf

---- Processing specs for species: H
Reading pseudopotential information in unformatted form from:
  H.vps

---- Pseudopotential check for O 

Pseudopotential generated from a fully relativistic atomic calculation
There are spin-orbit semi-local pseudopotentials available

Pseudized shells:
2s( 2.00) rc: 1.14
2p( 4.00) rc: 1.14
3d( 0.00) rc: 1.14
4f( 0.00) rc: 1.14
Valence configuration for ps generation: (assumed as above)

---- Pseudopotential check for H 

Pseudized shells:
1s( 1.00) rc: 1.25
2p( 0.00) rc: 1.25
3d( 0.00) rc: 1.25
4f( 0.00) rc: 1.25
Valence configuration for ps generation: (assumed as above)
For O, standard SIESTA heuristics set lmxkb to 3
 (one more than the basis l, including polarization orbitals).
Use PS.lmax or PS.KBprojectors blocks to override.
For H, standard SIESTA heuristics set lmxkb to 2
 (one more than the basis l, including polarization orbitals).
Use PS.lmax or PS.KBprojectors blocks to override.

<basis_specs>
===============================================================================
O                    Z=   8    Mass=  15.999        Charge= 0.17977+309
Lmxo=2 Lmxkb= 3    BasisType=split      Semic=F
L=0  Nsemic=0  Cnfigmx=2
          i=1  nzeta=1  polorb=0  (2s)
            splnorm:   0.15000    
               vcte:    40.000    
               rinn:  -0.90000    
               qcoe:    0.0000    
               qyuk:    0.0000    
               qwid:   0.10000E-01
                rcs:    0.0000    
            lambdas:    1.0000    
L=1  Nsemic=0  Cnfigmx=2
          i=1  nzeta=1  polorb=1  (2p)  (to be polarized perturbatively)
            splnorm:   0.15000    
               vcte:    40.000    
               rinn:  -0.90000    
               qcoe:    0.0000    
               qyuk:    0.0000    
               qwid:   0.10000E-01
                rcs:    0.0000    
            lambdas:    1.0000    
L=2  Nsemic=0  Cnfigmx=3
          i=1  nzeta=0  polorb=0  (3d)  (perturbative polarization orbital) (from 2p)
-------------------------------------------------------------------------------
L=0  Nkbl=1  erefs: 0.17977+309
L=1  Nkbl=1  erefs: 0.17977+309
L=2  Nkbl=1  erefs: 0.17977+309
L=3  Nkbl=1  erefs: 0.17977+309
===============================================================================
</basis_specs>

Using PAO.SplitTailNorm
atom: Called for O                     (Z =   8)
Maximum radius (at nrval) set to   50.00000 8518

read_vps: Pseudopotential generation method:
read_vps: ATM3      Troullier-Martins                       
Valence charge in pseudo generation:    6.00000

read_vps: Pseudopotential includes a core correction:
read_vps: Pseudo-core for xc-correction

xc_check: Exchange-correlation functional:
xc_check: GGA Perdew, Burke & Ernzerhof 1996
V l=0 = -2*Zval/r beyond r=  1.1355
V l=1 = -2*Zval/r beyond r=  1.1355
V l=2 = -2*Zval/r beyond r=  1.1309
V l=3 = -2*Zval/r beyond r=  1.1286
All V_l potentials equal beyond r=  1.1355
This should be close to max(r_c) in ps generation
All pots = -2*Zval/r beyond r=  1.1355
Using small-core scheme (local charge) for Vlocal

VLOCAL_FROM_CHLOCAL: 99.0% of the norm of Vloc inside     33.667 Ry
VLOCAL_FROM_CHLOCAL: 99.9% of the norm of Vloc inside     76.727 Ry
atom: Maximum radius for chlocal:    1.37241
atom: Maximum radius for r*vlocal+2*Zval:    1.25469

KBgen: Kleinman-Bylander projectors: 
GHOST: No ghost state for L =  0
   l= 0   rc=  1.357289   el= -1.759790   Ekb=  9.151830   kbcos=  0.327271
GHOST: No ghost state for L =  1
   l= 1   rc=  1.345038   el= -0.663797   Ekb= -7.991133   kbcos= -0.393963
GHOST: No ghost state for L =  2
   l= 2   rc=  1.779310   el=  0.012956   Ekb= -1.983219   kbcos= -0.003702
GHOST: No ghost state for L =  3
   l= 3   rc=  2.085579   el=  0.019231   Ekb= -0.873623   kbcos= -0.000360

KBgen: Total number of Kleinman-Bylander projectors:  16
atom: -------------------------------------------------------------------------

atom: SANKEY-TYPE ORBITALS:

SPLIT: Orbitals with angular momentum L= 0

SPLIT: Basis orbitals for state 2s

SPLIT: PAO cut-off radius determined from an
SPLIT: energy shift=  0.010000 Ry
Split based on tail norm

   izeta = 1
                 lambda =    1.000000
                     rc =    3.532490
                 energy =   -1.748682
                kinetic =    1.612754
    potential(screened) =   -3.361436
       potential(ionic) =  -11.306460

SPLIT: Orbitals with angular momentum L= 1

SPLIT: Basis orbitals for state 2p

SPLIT: PAO cut-off radius determined from an
SPLIT: energy shift=  0.010000 Ry
Split based on tail norm

   izeta = 1
                 lambda =    1.000000
                     rc =    4.299534
                 energy =   -0.652755
                kinetic =    4.913628
    potential(screened) =   -5.566382
       potential(ionic) =  -13.292903

POLgen: Perturbative polarization orbital with L=  2

POLgen: Polarization orbital for state 2p
Split based on tail norm

   izeta = 1
                     rc =    4.299534
                 energy =    2.258078
                kinetic =    4.298689
    potential(screened) =   -2.040611
       potential(ionic) =   -8.188336
atom: Total number of Sankey-type orbitals:  9

atm_pop: Valence configuration (for local Pseudopot. screening):
 2s( 2.00)                                                            
 2p( 4.00)                                                            
 3d( 0.00)                                                            
Vna: chval, zval:    6.00000   6.00000

Vna:  Cut-off radius for the neutral-atom potential:   4.299534
comcore: Pseudo-core radius Rcore=  1.364142

atom: _________________________________________________________________________

<basis_specs>
===============================================================================
H                    Z=   1    Mass=  1.0080        Charge= 0.17977+309
Lmxo=1 Lmxkb= 2    BasisType=split      Semic=F
L=0  Nsemic=0  Cnfigmx=1
          i=1  nzeta=1  polorb=1  (1s)  (to be polarized perturbatively)
            splnorm:   0.15000    
               vcte:    40.000    
               rinn:  -0.90000    
               qcoe:    0.0000    
               qyuk:    0.0000    
               qwid:   0.10000E-01
                rcs:    0.0000    
            lambdas:    1.0000    
L=1  Nsemic=0  Cnfigmx=2
          i=1  nzeta=0  polorb=0  (2p)  (perturbative polarization orbital) (from 1s)
-------------------------------------------------------------------------------
L=0  Nkbl=1  erefs: 0.17977+309
L=1  Nkbl=1  erefs: 0.17977+309
L=2  Nkbl=1  erefs: 0.17977+309
===============================================================================
</basis_specs>

Using PAO.SplitTailNorm
atom: Called for H                     (Z =   1)
Maximum radius (at nrval) set to   50.00000 8518

read_vps: Pseudopotential generation method:
read_vps: ATM3      Troullier-Martins                       
Valence charge in pseudo generation:    1.00000

xc_check: Exchange-correlation functional:
xc_check: GGA Perdew, Burke & Ernzerhof 1996
V l=0 = -2*Zval/r beyond r=  1.2384
V l=1 = -2*Zval/r beyond r=  1.2321
V l=2 = -2*Zval/r beyond r=  1.2235
All V_l potentials equal beyond r=  1.2371
This should be close to max(r_c) in ps generation
All pots = -2*Zval/r beyond r=  1.2384
Using small-core scheme (local charge) for Vlocal

VLOCAL_FROM_CHLOCAL: 99.0% of the norm of Vloc inside     28.363 Ry
VLOCAL_FROM_CHLOCAL: 99.9% of the norm of Vloc inside     64.639 Ry
atom: Maximum radius for chlocal:    1.44620
atom: Maximum radius for r*vlocal+2*Zval:    1.31026

KBgen: Kleinman-Bylander projectors: 
GHOST: No ghost state for L =  0
   l= 0   rc=  1.362769   el= -0.477200   Ekb= -2.026093   kbcos= -0.345051
GHOST: No ghost state for L =  1
   l= 1   rc=  1.431710   el=  0.007219   Ekb= -0.445752   kbcos= -0.023729
GHOST: No ghost state for L =  2
   l= 2   rc=  1.471166   el=  0.012944   Ekb= -0.141918   kbcos= -0.003041

KBgen: Total number of Kleinman-Bylander projectors:   9
atom: -------------------------------------------------------------------------

atom: SANKEY-TYPE ORBITALS:

SPLIT: Orbitals with angular momentum L= 0

SPLIT: Basis orbitals for state 1s

SPLIT: PAO cut-off radius determined from an
SPLIT: energy shift=  0.010000 Ry
Split based on tail norm

   izeta = 1
                 lambda =    1.000000
                     rc =    5.232664
                 energy =   -0.466073
                kinetic =    0.944036
    potential(screened) =   -1.410108
       potential(ionic) =   -1.935607

POLgen: Perturbative polarization orbital with L=  1

POLgen: Polarization orbital for state 1s
Split based on tail norm

   izeta = 1
                     rc =    5.232664
                 energy =    0.681103
                kinetic =    1.331928
    potential(screened) =   -0.650824
       potential(ionic) =   -1.138826
atom: Total number of Sankey-type orbitals:  4

atm_pop: Valence configuration (for local Pseudopot. screening):
 1s( 1.00)                                                            
 2p( 0.00)                                                            
Vna: chval, zval:    1.00000   1.00000

Vna:  Cut-off radius for the neutral-atom potential:   5.232664

atom: _________________________________________________________________________

prinput: Basis input 

PAO.BasisType split     

%block ChemicalSpeciesLabel
    1    8 O                       # Species index, atomic number, species label
    2    1 H                       # Species index, atomic number, species label
%endblock ChemicalSpeciesLabel

%block PAO.Basis                 # Define Basis set
# WARNING: This information might be incomplete!
O                     2                    # Species label, number of l-shells
 n=2   0   1                         # n, l, Nzeta 
   3.532   
   1.000   
 n=2   1   1 P   1                   # n, l, Nzeta, Polarization, NzetaPol
   4.300   
   1.000   
H                     1                    # Species label, number of l-shells
 n=1   0   1 P   1                   # n, l, Nzeta, Polarization, NzetaPol
   5.233   
   1.000   
%endblock PAO.Basis

prinput: ----------------------------------------------------------------------

Dumping basis to NetCDF file O.ion.nc
Dumping basis to NetCDF file H.ion.nc
coor:   Atomic-coordinates input format  =     Cartesian coordinates
coor:                                          (in Angstroms)

ioxv: Reading coordinates and velocities from file
! Info in XV file prevails over previous structure input
WARNING: xoc.VERLET_RESTART not found--reading only XV file and moving back 1 time step using Euler

siesta: Atomic coordinates (Bohr) and species
siesta:      2.54610  -0.03040  -0.00070  1        1
siesta:      4.99413  -0.00100  -0.00657  1        2
siesta:     12.84289   0.01600   0.01130  2        3
siesta:     14.21278   0.01600   0.01130  2        4

siesta: System type = chain     

initatomlists: Number of atoms, orbitals, and projectors:      4    26    50

coxmol: Writing XMOL coordinates into file xoc.xyz                                                                                                                                                                                                                             

siesta: ******************** Simulation parameters ****************************
siesta:
siesta: The following are some of the parameters of the simulation.
siesta: A complete list of the parameters used, including default values,
siesta: can be found in file out.fdf
siesta:
redata: Spin configuration                          = none
redata: Number of spin components                   = 1
redata: Time-Reversal Symmetry                      = T
redata: Spin spiral                                 = F
redata: Long output                                 =   F
redata: Number of Atomic Species                    =        2
redata: Charge density info will appear in .RHO file
redata: Write Mulliken charges (when)               = none
redata: Write Mulliken Pop.                         = NO
redata: Write Hirshfeld charges (when)              = none
redata: Write Voronoi charges (when)                = none
redata: Write spin charge (when)                    = none
redata: Matel table size (NRTAB)                    =     1024
redata: Mesh Cutoff                                 =   200.0000 Ry
redata: Net charge of the system                    =     0.0000 |e|
redata: Min. number of SCF Iter                     =        0
redata: Max. number of SCF Iter                     =      250
redata: SCF convergence failure will abort job
redata: SCF mix quantity                            = Hamiltonian
redata: Mix DM or H after convergence               =   F
redata: Recompute H after scf cycle                 =   F
redata: Mix DM in first SCF step                    =   T
redata: Write Pulay info on disk                    =   F
redata: New DM Occupancy tolerance                  = 0.000000000001
redata: No kicks to SCF
redata: DM Mixing Weight for Kicks                  =     0.5000
redata: Require Harris convergence for SCF          =   F
redata: Harris energy tolerance for SCF             =     0.000100 eV
redata: Require DM convergence for SCF              =   T
redata: DM tolerance for SCF                        =     0.000300
redata: Require EDM convergence for SCF             =   F
redata: EDM tolerance for SCF                       =     0.001000 eV
redata: Require H convergence for SCF               =   T
redata: Hamiltonian tolerance for SCF               =     0.001000 eV
redata: Require (free) Energy convergence for SCF   =   F
redata: (free) Energy tolerance for SCF             =     0.000100 eV
redata: Using DFT-D3 dispersion                     =   F
redata: Using Saved Data (generic)                  =   F
redata: Use continuation files for DM               =   T
redata: Neglect nonoverlap interactions             =   F
redata: Method of Calculation                       = Diagonalization
redata: Electronic Temperature                      =   290.1130 K
redata: Fix the spin of the system                  =   F
redata: Max. number of TDED Iter                    =        1
redata: Number of TDED substeps                     =        3
redata: Dynamics option                             = Verlet MD run
redata: Initial MD time step                        =        1
redata:   Final MD time step                        =      200
redata: Length of MD time step                      =     1.0000 fs
redata: Initial Temperature of MD run               =     0.0000 K
redata: Perform a MD quench                         =   F
mix.SCF: Pulay mixing                            = Pulay
mix.SCF:    Variant                              = stable
mix.SCF:    History steps                        = 6
mix.SCF:    Linear mixing weight                 =     0.020000
mix.SCF:    Mixing weight                        =     0.020000
mix.SCF:    SVD condition                        = 0.1000E-07
redata: Save all siesta data in one NC              =   F
redata: ***********************************************************************

%block SCF.Mixers
  Pulay
%endblock SCF.Mixers

%block SCF.Mixer.Pulay
  # Mixing method
  method pulay
  variant stable

  # Mixing options
  weight 0.0200
  weight.linear 0.0200
  history 6
%endblock SCF.Mixer.Pulay

Size of DM history Fstack: 1
Total number of electrons:    14.000000
Total ionic charge:    14.000000
 Kpoints in:            1 . Kpoints trimmed:            1

siesta: k-grid: Number of k-points = 1
siesta: k-points from Monkhorst-Pack grid
siesta: k-cutoff (effective) =     5.000 Ang
siesta: k-point supercell and displacements
siesta: k-grid:     1     0     0      0.000
siesta: k-grid:     0     1     0      0.000
siesta: k-grid:     0     0     1      0.000

diag: Algorithm                                     = D&C
diag: Used triangular part                          = Lower
diag: Absolute tolerance                            =  0.100E-15
diag: Orthogonalization factor                      =  0.100E-05
diag: Memory factor                                 =  1.0000


ts: **************************************************************
ts: Save H and S matrices                           =    F
ts: Save DM and EDM matrices                        =    F
ts: Only save the overlap matrix S                  =    F
ts: **************************************************************

************************ Begin: TS CHECKS AND WARNINGS ************************
************************ End: TS CHECKS AND WARNINGS **************************


                     ====================================
                        Begin MD step =      1
                     ====================================

outcell: Unit cell vectors (Ang):
       10.000004    0.000000    0.000000
        0.000000   10.000004    0.000000
        0.000000    0.000000   10.000004

outcell: Cell vector modules (Ang)   :   10.000004   10.000004   10.000004
outcell: Cell angles (23,13,12) (deg):     90.0000     90.0000     90.0000
outcell: Cell volume (Ang**3)        :   1000.0012
Gamma-point calculation with multiply-connected orbital pairs
Gamma-point calculation with multiply-connected orbital pairs
Folding of H and S implicitly performed
Folding of H and S implicitly performed
<dSpData1D:S at geom step 1
  <sparsity:sparsity for geom step 1
    nrows_g=26 nrows=26 sparsity=1.0000 nnzs=676, refcount: 7>
  <dData1D:(new from dSpData1D) n=676, refcount: 1>
refcount: 1>
new_DM -- step:     1
Initializing Density Matrix...

Attempting to read DM from file... Failed...
DM filled with atomic data:
<dSpData2D:DM initialized from atoms
  <sparsity:sparsity for geom step 1
    nrows_g=26 nrows=26 sparsity=1.0000 nnzs=676, refcount: 8>
  <dData2D:DM n=676 m=1, refcount: 1>
refcount: 1>
No. of atoms with KB's overlaping orbs in proc 0. Max # of overlaps:       4      22

InitMesh: MESH = 90 x 90 x 90 = 729000
InitMesh: Mesh cutoff (required, used) =   200.000   223.865 Ry
New grid distribution [1]: sub = 2

stepf: Fermi-Dirac step function

siesta: Program's energy decomposition (eV):
siesta: Ebs     =      -210.752157
siesta: Eions   =      1581.702395
siesta: Ena     =       338.376164
siesta: Ekin    =       625.106036
siesta: Enl     =       -91.073758
siesta: Eso     =         0.000000
siesta: Edftu   =         0.000000
siesta: DEna    =        14.324962
siesta: DUscf   =         1.614960
siesta: DUext   =         0.000000
siesta: Ex      =      -190.629991
siesta: Ec      =       -13.830813
siesta: Exc     =      -204.460804
siesta: EbV     =         0.000000
siesta: eta*DQ  =         0.000000
siesta: Emadel  =         0.000000
siesta: Emeta   =         0.000000
siesta: Emolmec =         0.000000
siesta: Ekinion =         0.000000
siesta: Eharris =      -900.001158
siesta: Etot    =      -897.814834
siesta: FreeEng =      -897.884149

        iscf     Eharris(eV)        E_KS(eV)     FreeEng(eV)     dDmax    Ef(eV) dHmax(eV)
   scf:    1     -900.001158     -897.814834     -897.884149  0.774040 -4.641320  2.437098
timer: Routine,Calls,Time,% = IterSCF        1       0.562  24.99
   scf:    2     -897.853364     -897.834158     -897.903472  0.001863 -4.674115  2.370661
   scf:    3     -898.285063     -898.124279     -898.193593  0.065432 -5.760430  0.202460
   scf:    4     -898.125307     -898.125951     -898.195265  0.008392 -5.681902  0.363190
   scf:    5     -898.128667     -898.127622     -898.196930  0.007271 -5.877683  0.045207
   scf:    6     -898.127658     -898.127762     -898.197074  0.011115 -5.867269  0.014067
   scf:    7     -898.127793     -898.127794     -898.197109  0.004549 -5.869896  0.006610
   scf:    8     -898.127774     -898.127785     -898.197100  0.000335 -5.866160  0.012525
   scf:    9     -898.127806     -898.127798     -898.197113  0.000455 -5.868565  0.000171
   scf:   10     -898.127798     -898.127798     -898.197113  0.000007 -5.868551  0.000151

SCF Convergence by DM+H criterion
max |DM_out - DM_in|         :     0.0000073953
max |H_out - H_in|      (eV) :     0.0001510481
SCF cycle converged after 10 iterations

Using DM_out to compute the final energy and forces
No. of atoms with KB's overlaping orbs in proc 0. Max # of overlaps:       4      22

siesta: E_KS(eV) =             -898.1278

siesta: E_KS - E_eggbox =      -898.1278

siesta: Atomic forces (eV/Ang):
----------------------------------------
   Tot    0.001400    0.005371    0.001924
----------------------------------------
   Max    5.159644
   Res    2.114922    sqrt( Sum f_i^2 / 3N )
----------------------------------------
   Max    5.159644    constrained

Stress tensor Voigt[x,y,z,yz,xz,xy] (kbar):      -15.49       -0.42       -0.25       -0.22       -0.04       -0.21
(Free)E + p*V (eV/cell)     -894.8368
Target enthalpy (eV/cell)     -898.1971

siesta: Stress tensor (static) (eV/Ang**3):
        -0.004320   -0.000008    0.000001
        -0.000008    0.000005    0.000000
         0.000001    0.000000    0.000006

siesta: Pressure (static):          2.30106765  kBar

siesta: Stress tensor (total) (eV/Ang**3):
        -0.009668   -0.000128   -0.000024
        -0.000128   -0.000260   -0.000139
        -0.000024   -0.000139   -0.000154

siesta: Pressure (total):          5.38387111  kBar

siesta: Temp_ion =    7442.894 K

                     ====================================
                        Begin MD step =      2
                     ====================================

outcell: Unit cell vectors (Ang):
       10.000004    0.000000    0.000000
        0.000000   10.000004    0.000000
        0.000000    0.000000   10.000004

outcell: Cell vector modules (Ang)   :   10.000004   10.000004   10.000004
outcell: Cell angles (23,13,12) (deg):     90.0000     90.0000     90.0000
outcell: Cell volume (Ang**3)        :   1000.0012
<dSpData1D:S at geom step 2
  <sparsity:sparsity for geom step 2
    nrows_g=26 nrows=26 sparsity=.9763 nnzs=660, refcount: 7>
  <dData1D:(new from dSpData1D) n=660, refcount: 1>
refcount: 1>
new_DM -- step:     2
Re-using DM from previous geometries...
Number of DMs in history: 1
 DM extrapolation coefficients: 
1   1.00000
New DM after history re-use:
<dSpData2D:SpM extrapolated using coords
  <sparsity:sparsity for geom step 2
    nrows_g=26 nrows=26 sparsity=.9763 nnzs=660, refcount: 9>
  <dData2D:(temp array for extrapolation) n=660 m=1, refcount: 1>
refcount: 1>
Note: For starting DM, Qtot, Tr[D*S] =         14.00000000         13.97769463
No. of atoms with KB's overlaping orbs in proc 0. Max # of overlaps:       4      18

InitMesh: MESH = 90 x 90 x 90 = 729000
InitMesh: Mesh cutoff (required, used) =   200.000   223.865 Ry
New grid distribution [1]: sub = 2

        iscf     Eharris(eV)        E_KS(eV)     FreeEng(eV)     dDmax    Ef(eV) dHmax(eV)
   scf:    1     -898.253798     -898.329092     -898.398406  0.011852 -5.655434  0.249492
   scf:    2     -898.328181     -898.328980     -898.398293  0.004053 -5.881749  0.091131
   scf:    3     -898.329432     -898.329222     -898.398536  0.001407 -5.845839  0.060210
   scf:    4     -898.329367     -898.329392     -898.398706  0.005299 -5.856885  0.016939
   scf:    5     -898.329336     -898.329400     -898.398714  0.006327 -5.859416  0.012703
   scf:    6     -898.329439     -898.329430     -898.398745  0.002796 -5.868100  0.006772
   scf:    7     -898.329433     -898.329433     -898.398747  0.000473 -5.866394  0.001050
   scf:    8     -898.329433     -898.329433     -898.398747  0.000119 -5.866637  0.000210

SCF Convergence by DM+H criterion
max |DM_out - DM_in|         :     0.0001188587
max |H_out - H_in|      (eV) :     0.0002099052
SCF cycle converged after 8 iterations

Using DM_out to compute the final energy and forces
No. of atoms with KB's overlaping orbs in proc 0. Max # of overlaps:       4      18

siesta: E_KS(eV) =             -898.3294

siesta: Atomic forces (eV/Ang):
----------------------------------------
   Tot    0.000674    0.000175    0.000168
----------------------------------------
   Max    2.719148
   Res    1.133081    sqrt( Sum f_i^2 / 3N )
----------------------------------------
   Max    2.719148    constrained

Stress tensor Voigt[x,y,z,yz,xz,xy] (kbar):      -12.93       -0.42       -0.26       -0.23       -0.27       -0.36
(Free)E + p*V (eV/cell)     -895.5660
Target enthalpy (eV/cell)     -898.3987

siesta: Stress tensor (static) (eV/Ang**3):
        -0.002723   -0.000104   -0.000145
        -0.000104    0.000001   -0.000007
        -0.000145   -0.000007   -0.000004

siesta: Pressure (static):          1.45578655  kBar

siesta: Stress tensor (total) (eV/Ang**3):
        -0.008070   -0.000224   -0.000170
        -0.000224   -0.000264   -0.000146
        -0.000170   -0.000146   -0.000164

siesta: Pressure (total):          4.53859001  kBar

siesta: Temp_ion =    7843.394 K

                     ====================================
                        Begin MD step =      3
                     ====================================

outcell: Unit cell vectors (Ang):
       10.000004    0.000000    0.000000
        0.000000   10.000004    0.000000
        0.000000    0.000000   10.000004

outcell: Cell vector modules (Ang)   :   10.000004   10.000004   10.000004
outcell: Cell angles (23,13,12) (deg):     90.0000     90.0000     90.0000
outcell: Cell volume (Ang**3)        :   1000.0012
Gamma-point calculation with multiply-connected orbital pairs
Gamma-point calculation with multiply-connected orbital pairs
Folding of H and S implicitly performed
Folding of H and S implicitly performed
<dSpData1D:S at geom step 3
  <sparsity:sparsity for geom step 3
    nrows_g=26 nrows=26 sparsity=1.0000 nnzs=676, refcount: 7>
  <dData1D:(new from dSpData1D) n=676, refcount: 1>
refcount: 1>
new_DM -- step:     3
Re-using DM from previous geometries...
Number of DMs in history: 1
 DM extrapolation coefficients: 
1   1.00000
New DM after history re-use:
<dSpData2D:SpM extrapolated using coords
  <sparsity:sparsity for geom step 3
    nrows_g=26 nrows=26 sparsity=1.0000 nnzs=676, refcount: 9>
  <dData2D:(temp array for extrapolation) n=676 m=1, refcount: 1>
refcount: 1>
Note: For starting DM, Qtot, Tr[D*S] =         14.00000000         13.94724265
No. of atoms with KB's overlaping orbs in proc 0. Max # of overlaps:       4      22

InitMesh: MESH = 90 x 90 x 90 = 729000
InitMesh: Mesh cutoff (required, used) =   200.000   223.865 Ry
New grid distribution [1]: sub = 2

        iscf     Eharris(eV)        E_KS(eV)     FreeEng(eV)     dDmax    Ef(eV) dHmax(eV)
   scf:    1     -898.234819     -898.426909     -898.496223  0.024232 -5.369988  0.589327
   scf:    2     -898.421441     -898.426093     -898.495376  0.021984 -5.906018  0.218730
   scf:    3     -898.428652     -898.427471     -898.496773  0.006798 -5.824989  0.146015
   scf:    4     -898.427716     -898.428334     -898.497629  0.023757 -5.849757  0.039199
   scf:    5     -898.428334     -898.428572     -898.497884  0.016374 -5.853726  0.031858
   scf:    6     -898.428650     -898.428633     -898.497946  0.002078 -5.875591  0.027883
   scf:    7     -898.428710     -898.428694     -898.498009  0.003941 -5.870640  0.002255
   scf:    8     -898.428694     -898.428694     -898.498009  0.000401 -5.871187  0.000862
   scf:    9     -898.428694     -898.428694     -898.498009  0.000041 -5.871544  0.000393

SCF Convergence by DM+H criterion
max |DM_out - DM_in|         :     0.0000414911
max |H_out - H_in|      (eV) :     0.0003925921
SCF cycle converged after 9 iterations

Using DM_out to compute the final energy and forces
No. of atoms with KB's overlaping orbs in proc 0. Max # of overlaps:       4      22

siesta: E_KS(eV) =             -898.4287

siesta: Atomic forces (eV/Ang):
----------------------------------------
   Tot   -0.005195   -0.003744   -0.000661
----------------------------------------
   Max    0.600891
   Res    0.319322    sqrt( Sum f_i^2 / 3N )
----------------------------------------
   Max    0.600891    constrained

Stress tensor Voigt[x,y,z,yz,xz,xy] (kbar):       -9.13       -0.42       -0.25       -0.23       -0.28       -0.37
(Free)E + p*V (eV/cell)     -896.4593
Target enthalpy (eV/cell)     -898.4980

siesta: Stress tensor (static) (eV/Ang**3):
        -0.000057    0.000036    0.000068
         0.000036    0.000009    0.000006
         0.000068    0.000006    0.000015

siesta: Pressure (static):          0.01774216  kBar

siesta: Stress tensor (total) (eV/Ang**3):
        -0.005700   -0.000228   -0.000177
        -0.000228   -0.000260   -0.000141
        -0.000177   -0.000141   -0.000156

siesta: Pressure (total):          3.26643037  kBar

siesta: Temp_ion =    8091.611 K

                     ====================================
                        Begin MD step =      4
                     ====================================

outcell: Unit cell vectors (Ang):
       10.000004    0.000000    0.000000
        0.000000   10.000004    0.000000
        0.000000    0.000000   10.000004

outcell: Cell vector modules (Ang)   :   10.000004   10.000004   10.000004
outcell: Cell angles (23,13,12) (deg):     90.0000     90.0000     90.0000
outcell: Cell volume (Ang**3)        :   1000.0012
<dSpData1D:S at geom step 4
  <sparsity:sparsity for geom step 4
    nrows_g=26 nrows=26 sparsity=1.0000 nnzs=676, refcount: 7>
  <dData1D:(new from dSpData1D) n=676, refcount: 1>
refcount: 1>
new_DM -- step:     4
Re-using DM from previous geometries...
Number of DMs in history: 1
 DM extrapolation coefficients: 
1   1.00000
New DM after history re-use:
<dSpData2D:SpM extrapolated using coords
  <sparsity:sparsity for geom step 4
    nrows_g=26 nrows=26 sparsity=1.0000 nnzs=676, refcount: 9>
  <dData2D:(temp array for extrapolation) n=676 m=1, refcount: 1>
refcount: 1>
Note: For starting DM, Qtot, Tr[D*S] =         14.00000000         13.94396275
No. of atoms with KB's overlaping orbs in proc 0. Max # of overlaps:       4      22

InitMesh: MESH = 90 x 90 x 90 = 729000
InitMesh: Mesh cutoff (required, used) =   200.000   223.865 Ry
New grid distribution [1]: sub = 2

        iscf     Eharris(eV)        E_KS(eV)     FreeEng(eV)     dDmax    Ef(eV) dHmax(eV)
   scf:    1     -898.041388     -898.273464     -898.342776  0.022079 -5.347557  0.643200
   scf:    2     -898.250916     -898.267443     -898.336463  0.048606 -5.919217  0.300107
   scf:    3     -898.276096     -898.272243     -898.341453  0.018149 -5.815123  0.216767
   scf:    4     -898.269505     -898.274065     -898.343265  0.054372 -5.857449  0.046443
   scf:    5     -898.275207     -898.275482     -898.344795  0.030514 -5.861778  0.034260
   scf:    6     -898.275503     -898.275494     -898.344808  0.001077 -5.866899  0.033312
   scf:    7     -898.275651     -898.275592     -898.344907  0.001547 -5.881336  0.002082
   scf:    8     -898.275592     -898.275592     -898.344907  0.000217 -5.880942  0.002200
   scf:    9     -898.275591     -898.275592     -898.344906  0.000431 -5.882473  0.000869
   scf:   10     -898.275592     -898.275592     -898.344907  0.000139 -5.882624  0.000762

SCF Convergence by DM+H criterion
max |DM_out - DM_in|         :     0.0001388322
max |H_out - H_in|      (eV) :     0.0007619043
SCF cycle converged after 10 iterations

Using DM_out to compute the final energy and forces
No. of atoms with KB's overlaping orbs in proc 0. Max # of overlaps:       4      22

siesta: E_KS(eV) =             -898.2756

siesta: Atomic forces (eV/Ang):
----------------------------------------
   Tot   -0.009727   -0.006557   -0.001406
----------------------------------------
   Max    2.308666
   Res    0.975320    sqrt( Sum f_i^2 / 3N )
----------------------------------------
   Max    2.308666    constrained

Stress tensor Voigt[x,y,z,yz,xz,xy] (kbar):       -6.55       -0.38       -0.17       -0.17        0.12       -0.10
(Free)E + p*V (eV/cell)     -896.8690
Target enthalpy (eV/cell)     -898.3449

siesta: Stress tensor (static) (eV/Ang**3):
         0.001741    0.000245    0.000386
         0.000245    0.000034    0.000044
         0.000386    0.000044    0.000073

siesta: Pressure (static):         -0.98676181  kBar

siesta: Stress tensor (total) (eV/Ang**3):
        -0.004086   -0.000062    0.000077
        -0.000062   -0.000239   -0.000106
         0.000077   -0.000106   -0.000103

siesta: Pressure (total):          2.36473677  kBar

siesta: Temp_ion =    7746.826 K

                     ====================================
                        Begin MD step =      5
                     ====================================

outcell: Unit cell vectors (Ang):
       10.000004    0.000000    0.000000
        0.000000   10.000004    0.000000
        0.000000    0.000000   10.000004

outcell: Cell vector modules (Ang)   :   10.000004   10.000004   10.000004
outcell: Cell angles (23,13,12) (deg):     90.0000     90.0000     90.0000
outcell: Cell volume (Ang**3)        :   1000.0012
<dSpData1D:S at geom step 5
  <sparsity:sparsity for geom step 5
    nrows_g=26 nrows=26 sparsity=1.0000 nnzs=676, refcount: 7>
  <dData1D:(new from dSpData1D) n=676, refcount: 1>
refcount: 1>
new_DM -- step:     5
Re-using DM from previous geometries...
Number of DMs in history: 1
 DM extrapolation coefficients: 
1   1.00000
New DM after history re-use:
<dSpData2D:SpM extrapolated using coords
  <sparsity:sparsity for geom step 5
    nrows_g=26 nrows=26 sparsity=1.0000 nnzs=676, refcount: 9>
  <dData2D:(temp array for extrapolation) n=676 m=1, refcount: 1>
refcount: 1>
Note: For starting DM, Qtot, Tr[D*S] =         14.00000000         13.96547005
No. of atoms with KB's overlaping orbs in proc 0. Max # of overlaps:       4      22

InitMesh: MESH = 90 x 90 x 90 = 729000
InitMesh: Mesh cutoff (required, used) =   200.000   223.865 Ry
New grid distribution [1]: sub = 2

        iscf     Eharris(eV)        E_KS(eV)     FreeEng(eV)     dDmax    Ef(eV) dHmax(eV)
   scf:    1     -897.985556     -898.125351     -898.194662  0.012838 -5.566717  0.408809
   scf:    2     -898.094664     -898.116129     -898.184845  0.070885 -5.921656  0.286845
   scf:    3     -898.127856     -898.122859     -898.191988  0.028387 -5.838995  0.207643
   scf:    4     -898.119672     -898.124836     -898.194046  0.059999 -5.879678  0.074499
   scf:    5     -898.125777     -898.126166     -898.195478  0.029396 -5.884521  0.019101
   scf:    6     -898.126197     -898.126185     -898.195499  0.001976 -5.887649  0.019399
   scf:    7     -898.126244     -898.126222     -898.195537  0.001527 -5.898539  0.001472
   scf:    8     -898.126223     -898.126223     -898.195537  0.000269 -5.898043  0.001898
   scf:    9     -898.126222     -898.126223     -898.195537  0.000385 -5.899050  0.001249
   scf:   10     -898.126223     -898.126223     -898.195537  0.000048 -5.899118  0.001072
   scf:   11     -898.126223     -898.126223     -898.195537  0.000263 -5.899368  0.000435

SCF Convergence by DM+H criterion
max |DM_out - DM_in|         :     0.0002632612
max |H_out - H_in|      (eV) :     0.0004349196
SCF cycle converged after 11 iterations

Using DM_out to compute the final energy and forces
No. of atoms with KB's overlaping orbs in proc 0. Max # of overlaps:       4      22

siesta: E_KS(eV) =             -898.1262

siesta: Atomic forces (eV/Ang):
----------------------------------------
   Tot   -0.012602   -0.007053   -0.001156
----------------------------------------
   Max    2.899439
   Res    1.223276    sqrt( Sum f_i^2 / 3N )
----------------------------------------
   Max    2.899439    constrained

Stress tensor Voigt[x,y,z,yz,xz,xy] (kbar):       -4.82       -0.32       -0.02       -0.07        0.66        0.26
(Free)E + p*V (eV/cell)     -897.1229
Target enthalpy (eV/cell)     -898.1955

siesta: Stress tensor (static) (eV/Ang**3):
         0.002589    0.000401    0.000623
         0.000401    0.000061    0.000088
         0.000623    0.000088    0.000140

siesta: Pressure (static):         -1.49014684  kBar

siesta: Stress tensor (total) (eV/Ang**3):
        -0.003007    0.000159    0.000412
         0.000159   -0.000200   -0.000046
         0.000412   -0.000046   -0.000011

siesta: Pressure (total):          1.71854342  kBar

siesta: Temp_ion =    7384.674 K

                     ====================================
                        Begin MD step =      6
                     ====================================

outcell: Unit cell vectors (Ang):
       10.000004    0.000000    0.000000
        0.000000   10.000004    0.000000
        0.000000    0.000000   10.000004

outcell: Cell vector modules (Ang)   :   10.000004   10.000004   10.000004
outcell: Cell angles (23,13,12) (deg):     90.0000     90.0000     90.0000
outcell: Cell volume (Ang**3)        :   1000.0012
<dSpData1D:S at geom step 6
  <sparsity:sparsity for geom step 6
    nrows_g=26 nrows=26 sparsity=1.0000 nnzs=676, refcount: 7>
  <dData1D:(new from dSpData1D) n=676, refcount: 1>
refcount: 1>
new_DM -- step:     6
Re-using DM from previous geometries...
Number of DMs in history: 1
 DM extrapolation coefficients: 
1   1.00000
New DM after history re-use:
<dSpData2D:SpM extrapolated using coords
  <sparsity:sparsity for geom step 6
    nrows_g=26 nrows=26 sparsity=1.0000 nnzs=676, refcount: 9>
  <dData2D:(temp array for extrapolation) n=676 m=1, refcount: 1>
refcount: 1>
No. of atoms with KB's overlaping orbs in proc 0. Max # of overlaps:       4      22

InitMesh: MESH = 90 x 90 x 90 = 729000
InitMesh: Mesh cutoff (required, used) =   200.000   223.865 Ry
New grid distribution [1]: sub = 2

        iscf     Eharris(eV)        E_KS(eV)     FreeEng(eV)     dDmax    Ef(eV) dHmax(eV)
   scf:    1     -898.147794     -898.125536     -898.194850  0.007406 -5.898370  0.023568
   scf:    2     -898.125282     -898.125462     -898.194771  0.006684 -5.919383  0.019560
   scf:    3     -898.125572     -898.125528     -898.194841  0.003235 -5.912524  0.017249
   scf:    4     -898.125489     -898.125534     -898.194848  0.005504 -5.918172  0.007361
   scf:    5     -898.125543     -898.125546     -898.194861  0.002871 -5.920144  0.004037
   scf:    6     -898.125547     -898.125547     -898.194862  0.000431 -5.922383  0.003180
   scf:    7     -898.125548     -898.125548     -898.194862  0.000145 -5.920781  0.000096

SCF Convergence by DM+H criterion
max |DM_out - DM_in|         :     0.0001450213
max |H_out - H_in|      (eV) :     0.0000959565
SCF cycle converged after 7 iterations

Using DM_out to compute the final energy and forces
No. of atoms with KB's overlaping orbs in proc 0. Max # of overlaps:       4      22

siesta: E_KS(eV) =             -898.1255

siesta: Atomic forces (eV/Ang):
----------------------------------------
   Tot   -0.014534   -0.007145   -0.000058
----------------------------------------
   Max    2.890804
   Res    1.226830    sqrt( Sum f_i^2 / 3N )
----------------------------------------
   Max    2.890804    constrained

Stress tensor Voigt[x,y,z,yz,xz,xy] (kbar):       -4.25       -0.25        0.14        0.03        1.05        0.52
(Free)E + p*V (eV/cell)     -897.2873
Target enthalpy (eV/cell)     -898.1949

siesta: Stress tensor (static) (eV/Ang**3):
         0.002733    0.000469    0.000724
         0.000469    0.000082    0.000121
         0.000724    0.000121    0.000190

siesta: Pressure (static):         -1.60460846  kBar

siesta: Stress tensor (total) (eV/Ang**3):
        -0.002652    0.000322    0.000658
         0.000322   -0.000158    0.000019
         0.000658    0.000019    0.000088

siesta: Pressure (total):          1.45408083  kBar

siesta: Temp_ion =    7383.901 K

                     ====================================
                        Begin MD step =      7
                     ====================================

outcell: Unit cell vectors (Ang):
       10.000004    0.000000    0.000000
        0.000000   10.000004    0.000000
        0.000000    0.000000   10.000004

outcell: Cell vector modules (Ang)   :   10.000004   10.000004   10.000004
outcell: Cell angles (23,13,12) (deg):     90.0000     90.0000     90.0000
outcell: Cell volume (Ang**3)        :   1000.0012
<dSpData1D:S at geom step 7
  <sparsity:sparsity for geom step 7
    nrows_g=26 nrows=26 sparsity=.9882 nnzs=668, refcount: 7>
  <dData1D:(new from dSpData1D) n=668, refcount: 1>
refcount: 1>
new_DM -- step:     7
Re-using DM from previous geometries...
Number of DMs in history: 1
 DM extrapolation coefficients: 
1   1.00000
New DM after history re-use:
<dSpData2D:SpM extrapolated using coords
  <sparsity:sparsity for geom step 7
    nrows_g=26 nrows=26 sparsity=.9882 nnzs=668, refcount: 9>
  <dData2D:(temp array for extrapolation) n=668 m=1, refcount: 1>
refcount: 1>
Note: For starting DM, Qtot, Tr[D*S] =         14.00000000         14.03320792
No. of atoms with KB's overlaping orbs in proc 0. Max # of overlaps:       4      22

InitMesh: MESH = 90 x 90 x 90 = 729000
InitMesh: Mesh cutoff (required, used) =   200.000   223.865 Ry
New grid distribution [1]: sub = 2

        iscf     Eharris(eV)        E_KS(eV)     FreeEng(eV)     dDmax    Ef(eV) dHmax(eV)
   scf:    1     -898.455781     -898.277393     -898.346708  0.011973 -6.240412  0.404320
   scf:    2     -898.253447     -898.270572     -898.339881  0.012468 -5.915941  0.360616
   scf:    3     -898.281344     -898.276892     -898.346206  0.005327 -6.036444  0.243978
   scf:    4     -898.278749     -898.278638     -898.347949  0.007888 -5.960491  0.027337
   scf:    5     -898.278503     -898.278656     -898.347967  0.010128 -5.955245  0.023151
   scf:    6     -898.278667     -898.278683     -898.347996  0.001776 -5.957536  0.027396
   scf:    7     -898.278755     -898.278741     -898.348055  0.003437 -5.945807  0.002021
   scf:    8     -898.278741     -898.278741     -898.348056  0.000064 -5.945654  0.000674

SCF Convergence by DM+H criterion
max |DM_out - DM_in|         :     0.0000640715
max |H_out - H_in|      (eV) :     0.0006736605
SCF cycle converged after 8 iterations

Using DM_out to compute the final energy and forces
No. of atoms with KB's overlaping orbs in proc 0. Max # of overlaps:       4      22

siesta: E_KS(eV) =             -898.2787

siesta: Atomic forces (eV/Ang):
----------------------------------------
   Tot   -0.014579   -0.004636    0.000747
----------------------------------------
   Max    2.326467
   Res    0.995580    sqrt( Sum f_i^2 / 3N )
----------------------------------------
   Max    2.326467    constrained

Stress tensor Voigt[x,y,z,yz,xz,xy] (kbar):       -5.18       -0.22        0.22        0.09        1.06        0.52
(Free)E + p*V (eV/cell)     -897.2716
Target enthalpy (eV/cell)     -898.3481

siesta: Stress tensor (static) (eV/Ang**3):
         0.002220    0.000409    0.000631
         0.000409    0.000083    0.000123
         0.000631    0.000123    0.000194

siesta: Pressure (static):         -1.33376225  kBar

siesta: Stress tensor (total) (eV/Ang**3):
        -0.003233    0.000326    0.000663
         0.000326   -0.000136    0.000054
         0.000663    0.000054    0.000140

siesta: Pressure (total):          1.72460691  kBar

siesta: Temp_ion =    7758.485 K

                     ====================================
                        Begin MD step =      8
                     ====================================

outcell: Unit cell vectors (Ang):
       10.000004    0.000000    0.000000
        0.000000   10.000004    0.000000
        0.000000    0.000000   10.000004

outcell: Cell vector modules (Ang)   :   10.000004   10.000004   10.000004
outcell: Cell angles (23,13,12) (deg):     90.0000     90.0000     90.0000
outcell: Cell volume (Ang**3)        :   1000.0012
Gamma-point calculation with multiply-connected orbital pairs
Gamma-point calculation with multiply-connected orbital pairs
Folding of H and S implicitly performed
Folding of H and S implicitly performed
<dSpData1D:S at geom step 8
  <sparsity:sparsity for geom step 8
    nrows_g=26 nrows=26 sparsity=1.0000 nnzs=676, refcount: 7>
  <dData1D:(new from dSpData1D) n=676, refcount: 1>
refcount: 1>
new_DM -- step:     8
Re-using DM from previous geometries...
Number of DMs in history: 1
 DM extrapolation coefficients: 
1   1.00000
New DM after history re-use:
<dSpData2D:SpM extrapolated using coords
  <sparsity:sparsity for geom step 8
    nrows_g=26 nrows=26 sparsity=1.0000 nnzs=676, refcount: 9>
  <dData2D:(temp array for extrapolation) n=676 m=1, refcount: 1>
refcount: 1>
Note: For starting DM, Qtot, Tr[D*S] =         14.00000000         14.05888388
No. of atoms with KB's overlaping orbs in proc 0. Max # of overlaps:       4      26

InitMesh: MESH = 90 x 90 x 90 = 729000
InitMesh: Mesh cutoff (required, used) =   200.000   223.865 Ry
New grid distribution [1]: sub = 2

        iscf     Eharris(eV)        E_KS(eV)     FreeEng(eV)     dDmax    Ef(eV) dHmax(eV)
   scf:    1     -898.716049     -898.451280     -898.520595  0.022159 -6.495126  0.744003
   scf:    2     -898.334830     -898.417086     -898.486390  0.028819 -5.916890  0.770284
   scf:    3     -898.470233     -898.449356     -898.518669  0.014178 -6.170417  0.494941
   scf:    4     -898.456124     -898.455634     -898.524941  0.011382 -5.996138  0.045874
   scf:    5     -898.455667     -898.455719     -898.525033  0.007758 -5.989605  0.047359
   scf:    6     -898.455109     -898.455586     -898.524893  0.006887 -5.991197  0.059529
   scf:    7     -898.455972     -898.455893     -898.525208  0.007827 -5.971428  0.005536
   scf:    8     -898.455895     -898.455895     -898.525209  0.000139 -5.972061  0.002854
   scf:    9     -898.455895     -898.455895     -898.525210  0.000137 -5.969876  0.000189

SCF Convergence by DM+H criterion
max |DM_out - DM_in|         :     0.0001367075
max |H_out - H_in|      (eV) :     0.0001894710
SCF cycle converged after 9 iterations

Using DM_out to compute the final energy and forces
No. of atoms with KB's overlaping orbs in proc 0. Max # of overlaps:       4      26

siesta: E_KS(eV) =             -898.4559

siesta: Atomic forces (eV/Ang):
----------------------------------------
   Tot   -0.013841   -0.002618    0.002220
----------------------------------------
   Max    0.816981
   Res    0.346983    sqrt( Sum f_i^2 / 3N )
----------------------------------------
   Max    0.816981    constrained

Stress tensor Voigt[x,y,z,yz,xz,xy] (kbar):       -7.82       -0.27        0.10        0.01        0.43        0.11
(Free)E + p*V (eV/cell)     -896.8644
Target enthalpy (eV/cell)     -898.5252

siesta: Stress tensor (static) (eV/Ang**3):
         0.000912    0.000142    0.000222
         0.000142    0.000036    0.000053
         0.000222    0.000053    0.000087

siesta: Pressure (static):         -0.55267862  kBar

siesta: Stress tensor (total) (eV/Ang**3):
        -0.004878    0.000069    0.000269
         0.000069   -0.000169    0.000004
         0.000269    0.000004    0.000065

siesta: Pressure (total):          2.66084084  kBar

siesta: Temp_ion =    8167.635 K

                     ====================================
                        Begin MD step =      9
                     ====================================

outcell: Unit cell vectors (Ang):
       10.000004    0.000000    0.000000
        0.000000   10.000004    0.000000
        0.000000    0.000000   10.000004

outcell: Cell vector modules (Ang)   :   10.000004   10.000004   10.000004
outcell: Cell angles (23,13,12) (deg):     90.0000     90.0000     90.0000
outcell: Cell volume (Ang**3)        :   1000.0012
<dSpData1D:S at geom step 9
  <sparsity:sparsity for geom step 9
    nrows_g=26 nrows=26 sparsity=1.0000 nnzs=676, refcount: 7>
  <dData1D:(new from dSpData1D) n=676, refcount: 1>
refcount: 1>
new_DM -- step:     9
Re-using DM from previous geometries...
Number of DMs in history: 1
 DM extrapolation coefficients: 
1   1.00000
New DM after history re-use:
<dSpData2D:SpM extrapolated using coords
  <sparsity:sparsity for geom step 9
    nrows_g=26 nrows=26 sparsity=1.0000 nnzs=676, refcount: 9>
  <dData2D:(temp array for extrapolation) n=676 m=1, refcount: 1>
refcount: 1>
Note: For starting DM, Qtot, Tr[D*S] =         14.00000000         14.06118464
No. of atoms with KB's overlaping orbs in proc 0. Max # of overlaps:       4      26

InitMesh: MESH = 90 x 90 x 90 = 729000
InitMesh: Mesh cutoff (required, used) =   200.000   223.865 Ry
New grid distribution [1]: sub = 2

        iscf     Eharris(eV)        E_KS(eV)     FreeEng(eV)     dDmax    Ef(eV) dHmax(eV)
   scf:    1     -898.638835     -898.398535     -898.467849  0.025233 -6.529304  0.806130
   scf:    2     -898.181150     -898.333480     -898.402756  0.052094 -5.937473  1.023334
   scf:    3     -898.433270     -898.397702     -898.467013  0.030981 -6.253253  0.569873
   scf:    4     -898.404192     -898.404313     -898.473604  0.024749 -6.025000  0.046431
   scf:    5     -898.404587     -898.404470     -898.473774  0.003847 -6.021895  0.048773
   scf:    6     -898.403987     -898.404474     -898.473784  0.013245 -6.022344  0.065340
   scf:    7     -898.404875     -898.404769     -898.474084  0.006181 -5.997625  0.006417
   scf:    8     -898.404772     -898.404771     -898.474086  0.000313 -5.998198  0.002894
   scf:    9     -898.404771     -898.404771     -898.474086  0.000342 -5.996384  0.000522
   scf:   10     -898.404771     -898.404771     -898.474086  0.000071 -5.996371  0.000459

SCF Convergence by DM+H criterion
max |DM_out - DM_in|         :     0.0000708733
max |H_out - H_in|      (eV) :     0.0004588565
SCF cycle converged after 10 iterations

Using DM_out to compute the final energy and forces
No. of atoms with KB's overlaping orbs in proc 0. Max # of overlaps:       4      26

siesta: E_KS(eV) =             -898.4048

siesta: Atomic forces (eV/Ang):
----------------------------------------
   Tot   -0.009728   -0.000659    0.003041
----------------------------------------
   Max    2.126502
   Res    0.943454    sqrt( Sum f_i^2 / 3N )
----------------------------------------
   Max    2.126502    constrained

Stress tensor Voigt[x,y,z,yz,xz,xy] (kbar):      -11.48       -0.48       -0.39       -0.32       -0.94       -0.79
(Free)E + p*V (eV/cell)     -895.9042
Target enthalpy (eV/cell)     -898.4741

siesta: Stress tensor (static) (eV/Ang**3):
        -0.001040   -0.000397   -0.000603
        -0.000397   -0.000102   -0.000157
        -0.000603   -0.000157   -0.000233

siesta: Pressure (static):          0.73438881  kBar

siesta: Stress tensor (total) (eV/Ang**3):
        -0.007163   -0.000490   -0.000586
        -0.000490   -0.000302   -0.000198
        -0.000586   -0.000198   -0.000244

siesta: Pressure (total):          4.11737597  kBar

siesta: Temp_ion =    8027.708 K

                     ====================================
                        Begin MD step =     10
                     ====================================

outcell: Unit cell vectors (Ang):
       10.000004    0.000000    0.000000
        0.000000   10.000004    0.000000
        0.000000    0.000000   10.000004

outcell: Cell vector modules (Ang)   :   10.000004   10.000004   10.000004
outcell: Cell angles (23,13,12) (deg):     90.0000     90.0000     90.0000
outcell: Cell volume (Ang**3)        :   1000.0012
<dSpData1D:S at geom step 10
  <sparsity:sparsity for geom step 10
    nrows_g=26 nrows=26 sparsity=1.0000 nnzs=676, refcount: 7>
  <dData1D:(new from dSpData1D) n=676, refcount: 1>
refcount: 1>
new_DM -- step:    10
Re-using DM from previous geometries...
Number of DMs in history: 1
 DM extrapolation coefficients: 
1   1.00000
New DM after history re-use:
<dSpData2D:SpM extrapolated using coords
  <sparsity:sparsity for geom step 10
    nrows_g=26 nrows=26 sparsity=1.0000 nnzs=676, refcount: 9>
  <dData2D:(temp array for extrapolation) n=676 m=1, refcount: 1>
refcount: 1>
Note: For starting DM, Qtot, Tr[D*S] =         14.00000000         14.03114967
No. of atoms with KB's overlaping orbs in proc 0. Max # of overlaps:       4      26

InitMesh: MESH = 90 x 90 x 90 = 729000
InitMesh: Mesh cutoff (required, used) =   200.000   223.865 Ry
New grid distribution [1]: sub = 2

        iscf     Eharris(eV)        E_KS(eV)     FreeEng(eV)     dDmax    Ef(eV) dHmax(eV)
   scf:    1     -898.308334     -898.191182     -898.260496  0.013975 -6.267624  0.456193
   scf:    2     -898.007765     -898.135343     -898.204575  0.059992 -5.995565  0.913418
   scf:    3     -898.213319     -898.193371     -898.262684  0.044939 -6.187491  0.286943
   scf:    4     -898.193106     -898.194079     -898.263354  0.024525 -6.048332  0.034880
   scf:    5     -898.194586     -898.194374     -898.263675  0.007177 -6.043243  0.026027
   scf:    6     -898.194505     -898.194543     -898.263857  0.011235 -6.045582  0.022162
   scf:    7     -898.194603     -898.194581     -898.263896  0.001410 -6.029737  0.001823
   scf:    8     -898.194582     -898.194582     -898.263896  0.000207 -6.030049  0.001281
   scf:    9     -898.194582     -898.194582     -898.263896  0.000101 -6.029195  0.000224

SCF Convergence by DM+H criterion
max |DM_out - DM_in|         :     0.0001008698
max |H_out - H_in|      (eV) :     0.0002235804
SCF cycle converged after 9 iterations

Using DM_out to compute the final energy and forces
No. of atoms with KB's overlaping orbs in proc 0. Max # of overlaps:       4      26

siesta: E_KS(eV) =             -898.1946

siesta: Atomic forces (eV/Ang):
----------------------------------------
   Tot   -0.007530    0.001419    0.003568
----------------------------------------
   Max    4.422547
   Res    2.071410    sqrt( Sum f_i^2 / 3N )
----------------------------------------
   Max    4.422547    constrained

Stress tensor Voigt[x,y,z,yz,xz,xy] (kbar):      -13.07       -0.78       -1.07       -0.76       -2.11       -1.55
(Free)E + p*V (eV/cell)     -895.1592
Target enthalpy (eV/cell)     -898.2639

siesta: Stress tensor (static) (eV/Ang**3):
        -0.002153   -0.000890   -0.001355
        -0.000890   -0.000283   -0.000432
        -0.001355   -0.000432   -0.000653

siesta: Pressure (static):          1.64930826  kBar

siesta: Stress tensor (total) (eV/Ang**3):
        -0.008160   -0.000967   -0.001315
        -0.000967   -0.000485   -0.000477
        -0.001315   -0.000477   -0.000669

siesta: Pressure (total):          4.97433849  kBar

siesta: Temp_ion =    7607.953 K

                     ====================================
                        Begin MD step =     11
                     ====================================

outcell: Unit cell vectors (Ang):
       10.000004    0.000000    0.000000
        0.000000   10.000004    0.000000
        0.000000    0.000000   10.000004

outcell: Cell vector modules (Ang)   :   10.000004   10.000004   10.000004
outcell: Cell angles (23,13,12) (deg):     90.0000     90.0000     90.0000
outcell: Cell volume (Ang**3)        :   1000.0012
<dSpData1D:S at geom step 11
  <sparsity:sparsity for geom step 11
    nrows_g=26 nrows=26 sparsity=1.0000 nnzs=676, refcount: 7>
  <dData1D:(new from dSpData1D) n=676, refcount: 1>
refcount: 1>
new_DM -- step:    11
Re-using DM from previous geometries...
Number of DMs in history: 1
 DM extrapolation coefficients: 
1   1.00000
New DM after history re-use:
<dSpData2D:SpM extrapolated using coords
  <sparsity:sparsity for geom step 11
    nrows_g=26 nrows=26 sparsity=1.0000 nnzs=676, refcount: 9>
  <dData2D:(temp array for extrapolation) n=676 m=1, refcount: 1>
refcount: 1>
No. of atoms with KB's overlaping orbs in proc 0. Max # of overlaps:       4      26

InitMesh: MESH = 90 x 90 x 90 = 729000
InitMesh: Mesh cutoff (required, used) =   200.000   223.865 Ry
New grid distribution [1]: sub = 2

        iscf     Eharris(eV)        E_KS(eV)     FreeEng(eV)     dDmax    Ef(eV) dHmax(eV)
   scf:    1     -898.328301     -898.367854     -898.437156  0.015741 -5.902305  0.310150
   scf:    2     -898.234696     -898.326694     -898.394784  0.105275 -6.087322  0.613659
   scf:    3     -898.380165     -898.368744     -898.438040  0.084384 -5.950605  0.183238
   scf:    4     -898.355947     -898.365425     -898.434394  0.061005 -6.044382  0.064322
   scf:    5     -898.369773     -898.369273     -898.438584  0.044776 -6.050239  0.027188
   scf:    6     -898.369289     -898.369292     -898.438607  0.003624 -6.073880  0.003616
   scf:    7     -898.369296     -898.369295     -898.438609  0.000584 -6.075079  0.001061
   scf:    8     -898.369295     -898.369295     -898.438609  0.000391 -6.075652  0.000799
   scf:    9     -898.369295     -898.369295     -898.438609  0.000216 -6.075676  0.000621

SCF Convergence by DM+H criterion
max |DM_out - DM_in|         :     0.0002161990
max |H_out - H_in|      (eV) :     0.0006207138
SCF cycle converged after 9 iterations

Using DM_out to compute the final energy and forces
No. of atoms with KB's overlaping orbs in proc 0. Max # of overlaps:       4      26

siesta: E_KS(eV) =             -898.3693

siesta: Atomic forces (eV/Ang):
----------------------------------------
   Tot   -0.004492    0.003894    0.003992
----------------------------------------
   Max    2.614397
   Res    1.287217    sqrt( Sum f_i^2 / 3N )
----------------------------------------
   Max    2.614397    constrained

Stress tensor Voigt[x,y,z,yz,xz,xy] (kbar):      -10.46       -0.75       -1.02       -0.73       -1.43       -1.10
(Free)E + p*V (eV/cell)     -895.8924
Target enthalpy (eV/cell)     -898.4386

siesta: Stress tensor (static) (eV/Ang**3):
        -0.000959   -0.000626   -0.000957
        -0.000626   -0.000235   -0.000361
        -0.000957   -0.000361   -0.000544

siesta: Pressure (static):          0.92824733  kBar

siesta: Stress tensor (total) (eV/Ang**3):
        -0.006530   -0.000690   -0.000895
        -0.000690   -0.000471   -0.000457
        -0.000895   -0.000457   -0.000637

siesta: Pressure (total):          4.07941738  kBar

siesta: Temp_ion =    7956.633 K

                     ====================================
                        Begin MD step =     12
                     ====================================

outcell: Unit cell vectors (Ang):
       10.000004    0.000000    0.000000
        0.000000   10.000004    0.000000
        0.000000    0.000000   10.000004

outcell: Cell vector modules (Ang)   :   10.000004   10.000004   10.000004
outcell: Cell angles (23,13,12) (deg):     90.0000     90.0000     90.0000
outcell: Cell volume (Ang**3)        :   1000.0012
<dSpData1D:S at geom step 12
  <sparsity:sparsity for geom step 12
    nrows_g=26 nrows=26 sparsity=1.0000 nnzs=676, refcount: 7>
  <dData1D:(new from dSpData1D) n=676, refcount: 1>
refcount: 1>
new_DM -- step:    12
Re-using DM from previous geometries...
Number of DMs in history: 1
 DM extrapolation coefficients: 
1   1.00000
New DM after history re-use:
<dSpData2D:SpM extrapolated using coords
  <sparsity:sparsity for geom step 12
    nrows_g=26 nrows=26 sparsity=1.0000 nnzs=676, refcount: 9>
  <dData2D:(temp array for extrapolation) n=676 m=1, refcount: 1>
refcount: 1>
Note: For starting DM, Qtot, Tr[D*S] =         14.00000000         13.95950960
No. of atoms with KB's overlaping orbs in proc 0. Max # of overlaps:       4      26

InitMesh: MESH = 90 x 90 x 90 = 729000
InitMesh: Mesh cutoff (required, used) =   200.000   223.865 Ry
New grid distribution [1]: sub = 2

        iscf     Eharris(eV)        E_KS(eV)     FreeEng(eV)     dDmax    Ef(eV) dHmax(eV)
   scf:    1     -898.298415     -898.502277     -898.571529  0.031416 -5.670315  0.629770
   scf:    2     -898.246385     -898.423402     -898.486876  0.221508 -6.201720  0.545912
   scf:    3     -898.529203     -898.487652     -898.555764  0.110023 -6.006394  0.353966
   scf:    4     -898.458006     -898.496610     -898.565113  0.165365 -6.117029  0.105315
   scf:    5     -898.498096     -898.497362     -898.565931  0.003139 -6.116300  0.105355
   scf:    6     -898.500012     -898.505224     -898.574506  0.086044 -6.126505  0.021199
   scf:    7     -898.492073     -898.502160     -898.571120  0.063750 -6.119655  0.055930
   scf:    8     -898.505479     -898.505817     -898.575132  0.048123 -6.138422  0.002348
   scf:    9     -898.505816     -898.505824     -898.575137  0.002969 -6.138347  0.002278
   scf:   10     -898.505823     -898.505825     -898.575139  0.001103 -6.139863  0.001559
   scf:   11     -898.505825     -898.505825     -898.575139  0.000217 -6.139762  0.001000
   scf:   12     -898.505825     -898.505825     -898.575139  0.000047 -6.139911  0.000869

SCF Convergence by DM+H criterion
max |DM_out - DM_in|         :     0.0000471120
max |H_out - H_in|      (eV) :     0.0008691196
SCF cycle converged after 12 iterations

Using DM_out to compute the final energy and forces
No. of atoms with KB's overlaping orbs in proc 0. Max # of overlaps:       4      26

siesta: E_KS(eV) =             -898.5058

siesta: Atomic forces (eV/Ang):
----------------------------------------
   Tot   -0.001590    0.005068    0.001135
----------------------------------------
   Max    0.422793
   Res    0.209663    sqrt( Sum f_i^2 / 3N )
----------------------------------------
   Max    0.422793    constrained

Stress tensor Voigt[x,y,z,yz,xz,xy] (kbar):       -7.73       -0.46       -0.35       -0.29       -0.05       -0.19
(Free)E + p*V (eV/cell)     -896.7986
Target enthalpy (eV/cell)     -898.5751

siesta: Stress tensor (static) (eV/Ang**3):
         0.000720    0.000069    0.000094
         0.000069    0.000036    0.000051
         0.000094    0.000051    0.000085

siesta: Pressure (static):         -0.44934417  kBar

siesta: Stress tensor (total) (eV/Ang**3):
        -0.004822   -0.000119   -0.000031
        -0.000119   -0.000290   -0.000182
        -0.000031   -0.000182   -0.000217

siesta: Pressure (total):          2.84624699  kBar

siesta: Temp_ion =    8280.552 K

                     ====================================
                        Begin MD step =     13
                     ====================================

outcell: Unit cell vectors (Ang):
       10.000004    0.000000    0.000000
        0.000000   10.000004    0.000000
        0.000000    0.000000   10.000004

outcell: Cell vector modules (Ang)   :   10.000004   10.000004   10.000004
outcell: Cell angles (23,13,12) (deg):     90.0000     90.0000     90.0000
outcell: Cell volume (Ang**3)        :   1000.0012
<dSpData1D:S at geom step 13
  <sparsity:sparsity for geom step 13
    nrows_g=26 nrows=26 sparsity=1.0000 nnzs=676, refcount: 7>
  <dData1D:(new from dSpData1D) n=676, refcount: 1>
refcount: 1>
new_DM -- step:    13
Re-using DM from previous geometries...
Number of DMs in history: 1
 DM extrapolation coefficients: 
1   1.00000
New DM after history re-use:
<dSpData2D:SpM extrapolated using coords
  <sparsity:sparsity for geom step 13
    nrows_g=26 nrows=26 sparsity=1.0000 nnzs=676, refcount: 9>
  <dData2D:(temp array for extrapolation) n=676 m=1, refcount: 1>
refcount: 1>
Note: For starting DM, Qtot, Tr[D*S] =         14.00000000         13.95440521
No. of atoms with KB's overlaping orbs in proc 0. Max # of overlaps:       4      26

InitMesh: MESH = 90 x 90 x 90 = 729000
InitMesh: Mesh cutoff (required, used) =   200.000   223.865 Ry
New grid distribution [1]: sub = 2

        iscf     Eharris(eV)        E_KS(eV)     FreeEng(eV)     dDmax    Ef(eV) dHmax(eV)
   scf:    1     -898.020101     -898.351658     -898.420732  0.042483 -5.685011  0.739703
   scf:    2     -897.632547     -898.129776     -898.180017  0.384468 -6.321328  0.712827
   scf:    3     -898.420933     -898.305519     -898.370710  0.182416 -6.063195  0.408897
   scf:    4     -897.917068     -898.258811     -898.318799  0.404176 -6.221558  0.286340
   scf:    5     -898.269873     -898.264381     -898.324893  0.006603 -6.220596  0.278261
   scf:    6     -897.646940     -897.997543     -898.030071  0.218747 -6.179015  0.553783
   scf:    7     -897.310322     -898.178832     -898.232314  0.763655 -6.217285  0.383217
   scf:    8     -898.311721     -898.249615     -898.309639  0.069771 -6.209072  0.297558
   scf:    9     -897.605149     -897.969211     -898.000546  0.218839 -6.209242  0.574274
   scf:   10     -898.084047     -898.027790     -898.065828  0.037132 -6.199365  0.525521
   scf:   11     -898.439422     -898.351155     -898.419877  0.362449 -6.181376  0.079933
   scf:   12     -898.362058     -898.358442     -898.427711  0.044824 -6.181751  0.052348
   scf:   13     -898.311956     -898.340857     -898.408748  0.080363 -6.199231  0.122626
   scf:   14     -898.331435     -898.336272     -898.403787  0.011768 -6.197271  0.136861
   scf:   15     -898.348072     -898.342408     -898.410426  0.016200 -6.198398  0.117247
   scf:   16     -898.338466     -898.340463     -898.408323  0.005383 -6.197952  0.123754
   scf:   17     -898.359467     -898.359355     -898.428664  0.100297 -6.216908  0.007342
   scf:   18     -898.359371     -898.359364     -898.428673  0.000600 -6.217925  0.005755
   scf:   19     -898.359381     -898.359382     -898.428691  0.002902 -6.221351  0.001630
   scf:   20     -898.359383     -898.359383     -898.428693  0.000660 -6.220889  0.001707
   scf:   21     -898.359383     -898.359383     -898.428693  0.000151 -6.220457  0.001743
   scf:   22     -898.359383     -898.359383     -898.428693  0.000039 -6.220370  0.001599
   scf:   23     -898.359383     -898.359383     -898.428693  0.000072 -6.220532  0.001373
   scf:   24     -898.359383     -898.359383     -898.428693  0.000184 -6.220688  0.000595

SCF Convergence by DM+H criterion
max |DM_out - DM_in|         :     0.0001839595
max |H_out - H_in|      (eV) :     0.0005951001
SCF cycle converged after 24 iterations

Using DM_out to compute the final energy and forces
No. of atoms with KB's overlaping orbs in proc 0. Max # of overlaps:       4      26

siesta: E_KS(eV) =             -898.3594

siesta: Atomic forces (eV/Ang):
----------------------------------------
   Tot   -0.000398    0.006309   -0.001857
----------------------------------------
   Max    1.689059
   Res    0.925524    sqrt( Sum f_i^2 / 3N )
----------------------------------------
   Max    1.689059    constrained

Stress tensor Voigt[x,y,z,yz,xz,xy] (kbar):       -6.63       -0.13        0.44        0.23        1.03        0.53
(Free)E + p*V (eV/cell)     -897.1144
Target enthalpy (eV/cell)     -898.4287

siesta: Stress tensor (static) (eV/Ang**3):
         0.001501    0.000601    0.000891
         0.000601    0.000294    0.000444
         0.000891    0.000444    0.000684

siesta: Pressure (static):         -1.32409152  kBar

siesta: Stress tensor (total) (eV/Ang**3):
        -0.004140    0.000334    0.000646
         0.000334   -0.000078    0.000141
         0.000646    0.000141    0.000275

siesta: Pressure (total):          2.10566515  kBar

siesta: Temp_ion =    7950.888 K

                     ====================================
                        Begin MD step =     14
                     ====================================

outcell: Unit cell vectors (Ang):
       10.000004    0.000000    0.000000
        0.000000   10.000004    0.000000
        0.000000    0.000000   10.000004

outcell: Cell vector modules (Ang)   :   10.000004   10.000004   10.000004
outcell: Cell angles (23,13,12) (deg):     90.0000     90.0000     90.0000
outcell: Cell volume (Ang**3)        :   1000.0012
<dSpData1D:S at geom step 14
  <sparsity:sparsity for geom step 14
    nrows_g=26 nrows=26 sparsity=1.0000 nnzs=676, refcount: 7>
  <dData1D:(new from dSpData1D) n=676, refcount: 1>
refcount: 1>
new_DM -- step:    14
Re-using DM from previous geometries...
Number of DMs in history: 1
 DM extrapolation coefficients: 
1   1.00000
New DM after history re-use:
<dSpData2D:SpM extrapolated using coords
  <sparsity:sparsity for geom step 14
    nrows_g=26 nrows=26 sparsity=1.0000 nnzs=676, refcount: 9>
  <dData2D:(temp array for extrapolation) n=676 m=1, refcount: 1>
refcount: 1>
Note: For starting DM, Qtot, Tr[D*S] =         14.00000000         13.97319926
No. of atoms with KB's overlaping orbs in proc 0. Max # of overlaps:       4      26

InitMesh: MESH = 90 x 90 x 90 = 729000
InitMesh: Mesh cutoff (required, used) =   200.000   223.865 Ry
New grid distribution [1]: sub = 2

        iscf     Eharris(eV)        E_KS(eV)     FreeEng(eV)     dDmax    Ef(eV) dHmax(eV)
   scf:    1     -897.820858     -898.155409     -898.224198  0.053698 -5.933941  0.641658
   scf:    2     -896.912316     -897.772220     -897.809254  0.520911 -6.413312  1.051702
   scf:    3     -898.297550     -898.126993     -898.193626  0.324518 -6.112587  0.420271
   scf:    4     -898.137947     -898.161890     -898.230834  0.187487 -6.145854  0.274448
   scf:    5     -897.748029     -898.012154     -898.066588  0.262098 -6.316733  0.369103
   scf:    6     -898.155493     -898.090753     -898.152823  0.091634 -6.287700  0.256882
   scf:    7     -898.037639     -898.147342     -898.215382  0.314699 -6.302808  0.123955
   scf:    8     -898.090039     -898.151059     -898.218841  0.196281 -6.307672  0.113195
   scf:    9     -898.156559     -898.153897     -898.221948  0.009754 -6.312962  0.101143
   scf:   10     -898.167117     -898.165460     -898.234735  0.076725 -6.309306  0.008392
   scf:   11     -898.164692     -898.165143     -898.234365  0.009136 -6.310450  0.019427
   scf:   12     -898.165471     -898.165529     -898.234832  0.016323 -6.311592  0.003103
   scf:   13     -898.165531     -898.165530     -898.234832  0.000379 -6.311770  0.002939
   scf:   14     -898.165528     -898.165530     -898.234832  0.000439 -6.313365  0.001010
   scf:   15     -898.165532     -898.165531     -898.234833  0.000405 -6.312959  0.000997
   scf:   16     -898.165530     -898.165530     -898.234833  0.000134 -6.313098  0.000845

SCF Convergence by DM+H criterion
max |DM_out - DM_in|         :     0.0001344222
max |H_out - H_in|      (eV) :     0.0008448472
SCF cycle converged after 16 iterations

Using DM_out to compute the final energy and forces
No. of atoms with KB's overlaping orbs in proc 0. Max # of overlaps:       4      26

siesta: E_KS(eV) =             -898.1655

siesta: Atomic forces (eV/Ang):
----------------------------------------
   Tot    0.003600    0.005860   -0.005108
----------------------------------------
   Max    2.261944
   Res    1.224339    sqrt( Sum f_i^2 / 3N )
----------------------------------------
   Max    2.261944    constrained

Stress tensor Voigt[x,y,z,yz,xz,xy] (kbar):       -6.67        0.20        1.20        0.72        1.83        1.08
(Free)E + p*V (eV/cell)     -897.1393
Target enthalpy (eV/cell)     -898.2348

siesta: Stress tensor (static) (eV/Ang**3):
         0.001387    0.000875    0.001285
         0.000875    0.000447    0.000679
         0.001285    0.000679    0.001046

siesta: Pressure (static):         -1.53805017  kBar

siesta: Stress tensor (total) (eV/Ang**3):
        -0.004162    0.000674    0.001141
         0.000674    0.000124    0.000451
         0.001141    0.000451    0.000751

siesta: Pressure (total):          1.75516136  kBar

siesta: Temp_ion =    7473.302 K

                     ====================================
                        Begin MD step =     15
                     ====================================

outcell: Unit cell vectors (Ang):
       10.000004    0.000000    0.000000
        0.000000   10.000004    0.000000
        0.000000    0.000000   10.000004

outcell: Cell vector modules (Ang)   :   10.000004   10.000004   10.000004
outcell: Cell angles (23,13,12) (deg):     90.0000     90.0000     90.0000
outcell: Cell volume (Ang**3)        :   1000.0012
<dSpData1D:S at geom step 15
  <sparsity:sparsity for geom step 15
    nrows_g=26 nrows=26 sparsity=1.0000 nnzs=676, refcount: 7>
  <dData1D:(new from dSpData1D) n=676, refcount: 1>
refcount: 1>
new_DM -- step:    15
Re-using DM from previous geometries...
Number of DMs in history: 1
 DM extrapolation coefficients: 
1   1.00000
New DM after history re-use:
<dSpData2D:SpM extrapolated using coords
  <sparsity:sparsity for geom step 15
    nrows_g=26 nrows=26 sparsity=1.0000 nnzs=676, refcount: 9>
  <dData2D:(temp array for extrapolation) n=676 m=1, refcount: 1>
refcount: 1>
No. of atoms with KB's overlaping orbs in proc 0. Max # of overlaps:       4      26

InitMesh: MESH = 90 x 90 x 90 = 729000
InitMesh: Mesh cutoff (required, used) =   200.000   223.865 Ry
New grid distribution [1]: sub = 2

        iscf     Eharris(eV)        E_KS(eV)     FreeEng(eV)     dDmax    Ef(eV) dHmax(eV)
   scf:    1     -897.806596     -898.061370     -898.129944  0.060378 -6.290023  0.416728
   scf:    2     -896.418718     -897.553708     -897.586044  0.565847 -6.453007  1.512473
   scf:    3     -898.173822     -898.065639     -898.134667  0.451364 -6.322214  0.148284
   scf:    4     -898.052932     -898.059770     -898.128407  0.023829 -6.320482  0.168180
   scf:    5     -897.568761     -897.931027     -897.986021  0.373192 -6.402820  0.352590
   scf:    6     -898.084324     -898.017730     -898.081350  0.109786 -6.392861  0.218578
   scf:    7     -898.079955     -898.071947     -898.141129  0.165146 -6.401791  0.022197
   scf:    8     -898.068644     -898.070561     -898.139542  0.017678 -6.402124  0.040152
   scf:    9     -898.066228     -898.068591     -898.137330  0.014464 -6.410383  0.057631
   scf:   10     -898.072328     -898.072319     -898.141597  0.046739 -6.410404  0.002057
   scf:   11     -898.072321     -898.072320     -898.141600  0.000486 -6.410356  0.001805
   scf:   12     -898.072300     -898.072314     -898.141601  0.001708 -6.410915  0.001075
   scf:   13     -898.072322     -898.072319     -898.141602  0.000916 -6.410741  0.000653
   scf:   14     -898.072318     -898.072318     -898.141602  0.000018 -6.410740  0.000677

SCF Convergence by DM+H criterion
max |DM_out - DM_in|         :     0.0000175565
max |H_out - H_in|      (eV) :     0.0006774019
SCF cycle converged after 14 iterations

Using DM_out to compute the final energy and forces
No. of atoms with KB's overlaping orbs in proc 0. Max # of overlaps:       4      26

siesta: E_KS(eV) =             -898.0723

siesta: Atomic forces (eV/Ang):
----------------------------------------
   Tot    0.001270    0.003989   -0.007780
----------------------------------------
   Max    2.420912
   Res    1.268950    sqrt( Sum f_i^2 / 3N )
----------------------------------------
   Max    2.420912    constrained

Stress tensor Voigt[x,y,z,yz,xz,xy] (kbar):       -7.84        0.39        1.66        1.02        2.14        1.33
(Free)E + p*V (eV/cell)     -896.9360
Target enthalpy (eV/cell)     -898.1416

siesta: Stress tensor (static) (eV/Ang**3):
         0.000537    0.000948    0.001354
         0.000948    0.000488    0.000748
         0.001354    0.000748    0.001154

siesta: Pressure (static):         -1.16381172  kBar

siesta: Stress tensor (total) (eV/Ang**3):
        -0.004894    0.000831    0.001339
         0.000832    0.000241    0.000635
         0.001339    0.000635    0.001037

siesta: Pressure (total):          1.93158646  kBar

siesta: Temp_ion =    7230.866 K

                     ====================================
                        Begin MD step =     16
                     ====================================

outcell: Unit cell vectors (Ang):
       10.000004    0.000000    0.000000
        0.000000   10.000004    0.000000
        0.000000    0.000000   10.000004

outcell: Cell vector modules (Ang)   :   10.000004   10.000004   10.000004
outcell: Cell angles (23,13,12) (deg):     90.0000     90.0000     90.0000
outcell: Cell volume (Ang**3)        :   1000.0012
<dSpData1D:S at geom step 16
  <sparsity:sparsity for geom step 16
    nrows_g=26 nrows=26 sparsity=1.0000 nnzs=676, refcount: 7>
  <dData1D:(new from dSpData1D) n=676, refcount: 1>
refcount: 1>
new_DM -- step:    16
Re-using DM from previous geometries...
Number of DMs in history: 1
 DM extrapolation coefficients: 
1   1.00000
New DM after history re-use:
<dSpData2D:SpM extrapolated using coords
  <sparsity:sparsity for geom step 16
    nrows_g=26 nrows=26 sparsity=1.0000 nnzs=676, refcount: 9>
  <dData2D:(temp array for extrapolation) n=676 m=1, refcount: 1>
refcount: 1>
Note: For starting DM, Qtot, Tr[D*S] =         14.00000000         14.03205382
No. of atoms with KB's overlaping orbs in proc 0. Max # of overlaps:       4      26

InitMesh: MESH = 90 x 90 x 90 = 729000
InitMesh: Mesh cutoff (required, used) =   200.000   223.865 Ry
New grid distribution [1]: sub = 2

        iscf     Eharris(eV)        E_KS(eV)     FreeEng(eV)     dDmax    Ef(eV) dHmax(eV)
   scf:    1     -897.889626     -898.064637     -898.133287  0.048784 -6.644130  0.523704
   scf:    2     -896.333123     -897.526814     -897.567374  0.487961 -6.438132  1.856608
   scf:    3     -898.183169     -898.072262     -898.141444  0.397650 -6.606184  0.212477
   scf:    4     -898.062878     -898.074688     -898.143451  0.085592 -6.586845  0.144500
   scf:    5     -897.965110     -898.032856     -898.097050  0.116274 -6.537368  0.187515
   scf:    6     -898.081301     -898.060259     -898.127302  0.057550 -6.502518  0.117407
   scf:    7     -898.073360     -898.077495     -898.146789  0.105449 -6.509330  0.015607
   scf:    8     -898.075922     -898.076826     -898.146138  0.010976 -6.508901  0.024575
   scf:    9     -898.077807     -898.077695     -898.146946  0.018640 -6.502726  0.003764
   scf:   10     -898.077690     -898.077693     -898.146948  0.000782 -6.500989  0.001422
   scf:   11     -898.077709     -898.077703     -898.146952  0.001448 -6.501135  0.001150
   scf:   12     -898.077700     -898.077701     -898.146952  0.000276 -6.501233  0.001026
   scf:   13     -898.077702     -898.077702     -898.146952  0.000063 -6.501109  0.000535

SCF Convergence by DM+H criterion
max |DM_out - DM_in|         :     0.0000633944
max |H_out - H_in|      (eV) :     0.0005347909
SCF cycle converged after 13 iterations

Using DM_out to compute the final energy and forces
[...]
   scf:   19     -897.534756     -898.008789     -898.047187  0.239231 -5.930760  0.359461
   scf:   20     -898.330564     -898.187477     -898.244108  0.107755 -5.928051  0.231190
   scf:   21     -898.372807     -898.318688     -898.387169  0.156277 -5.928714  0.071320
   scf:   22     -898.301726     -898.310802     -898.378595  0.020387 -5.932262  0.085646
   scf:   23     -898.276682     -898.295009     -898.361419  0.027474 -5.930372  0.110688
   scf:   24     -898.282100     -898.288692     -898.354545  0.009650 -5.934127  0.120877
   scf:   25     -898.262365     -898.275970     -898.340697  0.016630 -5.931811  0.139346
   scf:   26     -898.327243     -898.328099     -898.397412  0.127267 -5.952011  0.006516
   scf:   27     -898.324550     -898.326973     -898.396180  0.019484 -5.939265  0.028018
   scf:   28     -898.328504     -898.327997     -898.397298  0.012061 -5.947445  0.009457
   scf:   29     -898.328157     -898.328096     -898.397406  0.003298 -5.949659  0.004821
   scf:   30     -898.328119     -898.328124     -898.397439  0.003879 -5.952271  0.004525
   scf:   31     -898.328099     -898.328117     -898.397430  0.002028 -5.951573  0.003018
   scf:   32     -898.328129     -898.328125     -898.397439  0.001030 -5.951546  0.002053
   scf:   33     -898.328126     -898.328126     -898.397440  0.000286 -5.951729  0.001285
   scf:   34     -898.328126     -898.328126     -898.397440  0.000024 -5.951727  0.001271
   scf:   35     -898.328127     -898.328126     -898.397441  0.000308 -5.951546  0.001479
   scf:   36     -898.328127     -898.328126     -898.397441  0.000137 -5.951454  0.001591
   scf:   37     -898.328126     -898.328127     -898.397441  0.000529 -5.951590  0.001046
   scf:   38     -898.328127     -898.328127     -898.397441  0.000098 -5.951684  0.001045
   scf:   39     -898.328126     -898.328126     -898.397441  0.000304 -5.952100  0.001011
   scf:   40     -898.328127     -898.328127     -898.397441  0.000105 -5.952225  0.000941

SCF Convergence by DM+H criterion
max |DM_out - DM_in|         :     0.0001054945
max |H_out - H_in|      (eV) :     0.0009412116
SCF cycle converged after 40 iterations

Using DM_out to compute the final energy and forces
No. of atoms with KB's overlaping orbs in proc 0. Max # of overlaps:       4      22

siesta: E_KS(eV) =             -898.3281

siesta: Atomic forces (eV/Ang):
----------------------------------------
   Tot   -0.008302   -0.000172   -0.007154
----------------------------------------
   Max    1.381404
   Res    0.947746    sqrt( Sum f_i^2 / 3N )
----------------------------------------
   Max    1.381404    constrained

Stress tensor Voigt[x,y,z,yz,xz,xy] (kbar):        0.56       -0.97       -0.57       -0.57        0.85       -0.02
(Free)E + p*V (eV/cell)     -898.1959
Target enthalpy (eV/cell)     -898.3974

siesta: Stress tensor (static) (eV/Ang**3):
         0.001222    0.000520    0.001434
         0.000520    0.000376    0.000397
         0.001434    0.000397    0.002051

siesta: Pressure (static):         -1.94874659  kBar

siesta: Stress tensor (total) (eV/Ang**3):
         0.000352   -0.000012    0.000528
        -0.000012   -0.000602   -0.000354
         0.000528   -0.000354   -0.000354

siesta: Pressure (total):          0.32297555  kBar

siesta: Temp_ion =    6973.667 K

                     ====================================
                        Begin MD step =    199
                     ====================================

outcell: Unit cell vectors (Ang):
       10.000004    0.000000    0.000000
        0.000000   10.000004    0.000000
        0.000000    0.000000   10.000004

outcell: Cell vector modules (Ang)   :   10.000004   10.000004   10.000004
outcell: Cell angles (23,13,12) (deg):     90.0000     90.0000     90.0000
outcell: Cell volume (Ang**3)        :   1000.0012
<dSpData1D:S at geom step 199
  <sparsity:sparsity for geom step 199
    nrows_g=26 nrows=26 sparsity=1.0000 nnzs=676, refcount: 7>
  <dData1D:(new from dSpData1D) n=676, refcount: 1>
refcount: 1>
new_DM -- step:   199
Re-using DM from previous geometries...
Number of DMs in history: 1
 DM extrapolation coefficients: 
1   1.00000
New DM after history re-use:
<dSpData2D:SpM extrapolated using coords
  <sparsity:sparsity for geom step 199
    nrows_g=26 nrows=26 sparsity=1.0000 nnzs=676, refcount: 9>
  <dData2D:(temp array for extrapolation) n=676 m=1, refcount: 1>
refcount: 1>
Note: For starting DM, Qtot, Tr[D*S] =         14.00000000         14.13800205
No. of atoms with KB's overlaping orbs in proc 0. Max # of overlaps:       4      26

InitMesh: MESH = 90 x 90 x 90 = 729000
InitMesh: Mesh cutoff (required, used) =   200.000   223.865 Ry
New grid distribution [1]: sub = 2

        iscf     Eharris(eV)        E_KS(eV)     FreeEng(eV)     dDmax    Ef(eV) dHmax(eV)
   scf:    1     -898.493179     -898.058961     -898.127909  0.054681 -7.247079  1.489532
   scf:    2     -896.965297     -897.725835     -897.762110  0.366049 -5.867767  0.685682
   scf:    3     -898.015805     -897.882017     -897.934140  0.083110 -6.125370  0.610958
   scf:    4     -896.378074     -897.684008     -897.714690  0.599460 -6.039836  0.499254
   scf:    5     -898.040935     -897.879103     -897.930776  0.106514 -6.008571  0.274261
   scf:    6     -897.866767     -897.872959     -897.924030  0.003907 -6.006617  0.278637
   scf:    7     -895.685352     -897.493102     -897.495014  0.677388 -6.000829  0.626358
   scf:    8     -897.472664     -897.482972     -897.483470  0.003673 -5.974830  0.647068
   scf:    9     -897.528429     -897.505796     -897.509979  0.006107 -5.949674  0.560979
   scf:   10     -895.045629     -897.440051     -897.440051  0.856589 -5.835234  0.835298
   scf:   11     -897.661108     -897.552662     -897.565358  0.026347 -5.904391  0.478301
   scf:   12     -897.531448     -897.542080     -897.553084  0.003984 -5.902598  0.485770
   scf:   13     -897.482208     -897.512333     -897.518255  0.010677 -5.888569  0.511638
   scf:   14     -897.463134     -897.487852     -897.489382  0.007623 -5.890266  0.551180
   scf:   15     -896.591147     -897.829285     -897.875722  0.706466 -5.926789  0.308408
   scf:   16     -897.974235     -898.067526     -898.136292  0.323783 -5.918894  0.082890
   scf:   17     -896.996439     -897.743396     -897.780606  0.369652 -5.931385  0.362574
   scf:   18     -898.033699     -898.073032     -898.142262  0.341973 -5.921288  0.051817
   scf:   19     -898.069228     -898.073131     -898.142360  0.035526 -5.921140  0.043424
   scf:   20     -898.046983     -898.066802     -898.135507  0.065287 -5.922992  0.079991
   scf:   21     -897.918431     -898.033586     -898.099369  0.161028 -5.925413  0.122759
   scf:   22     -898.061781     -898.048539     -898.115631  0.023344 -5.925636  0.103515
   scf:   23     -898.055037     -898.051846     -898.119226  0.006515 -5.930669  0.093135
   scf:   24     -898.079499     -898.073523     -898.142784  0.070906 -5.940434  0.021504
   scf:   25     -898.074244     -898.074067     -898.143378  0.011057 -5.946749  0.005989
   scf:   26     -898.074106     -898.074094     -898.143408  0.002174 -5.950456  0.004336
   scf:   27     -898.074101     -898.074106     -898.143420  0.002737 -5.952404  0.002928
   scf:   28     -898.074103     -898.074106     -898.143421  0.001101 -5.951509  0.002612
   scf:   29     -898.074107     -898.074107     -898.143421  0.000458 -5.951952  0.002312
   scf:   30     -898.074107     -898.074107     -898.143421  0.000095 -5.951920  0.002172
   scf:   31     -898.074107     -898.074107     -898.143422  0.000324 -5.952519  0.001918
   scf:   32     -898.074107     -898.074107     -898.143422  0.000052 -5.952665  0.001770
   scf:   33     -898.074108     -898.074108     -898.143422  0.000396 -5.951998  0.000657
   scf:   34     -898.074108     -898.074108     -898.143422  0.000102 -5.951938  0.000705

SCF Convergence by DM+H criterion
max |DM_out - DM_in|         :     0.0001023592
max |H_out - H_in|      (eV) :     0.0007051973
SCF cycle converged after 34 iterations

Using DM_out to compute the final energy and forces
No. of atoms with KB's overlaping orbs in proc 0. Max # of overlaps:       4      26

siesta: E_KS(eV) =             -898.0741

siesta: Atomic forces (eV/Ang):
----------------------------------------
   Tot   -0.011021   -0.001382   -0.008878
----------------------------------------
   Max    3.938700
   Res    2.382705    sqrt( Sum f_i^2 / 3N )
----------------------------------------
   Max    3.938700    constrained

Stress tensor Voigt[x,y,z,yz,xz,xy] (kbar):       -4.82       -2.39       -5.19       -3.03       -4.14       -2.74
(Free)E + p*V (eV/cell)     -895.5620
Target enthalpy (eV/cell)     -898.1434

siesta: Stress tensor (static) (eV/Ang**3):
        -0.001608   -0.000855   -0.001208
        -0.000855   -0.000309   -0.000870
        -0.001208   -0.000870   -0.000419

siesta: Pressure (static):          1.24746026  kBar

siesta: Stress tensor (total) (eV/Ang**3):
        -0.003011   -0.001711   -0.002581
        -0.001711   -0.001492   -0.001894
        -0.002581   -0.001894   -0.003242

siesta: Pressure (total):          4.13591288  kBar

siesta: Temp_ion =    5974.770 K

                     ====================================
                        Begin MD step =    200
                     ====================================

outcell: Unit cell vectors (Ang):
       10.000004    0.000000    0.000000
        0.000000   10.000004    0.000000
        0.000000    0.000000   10.000004

outcell: Cell vector modules (Ang)   :   10.000004   10.000004   10.000004
outcell: Cell angles (23,13,12) (deg):     90.0000     90.0000     90.0000
outcell: Cell volume (Ang**3)        :   1000.0012
<dSpData1D:S at geom step 200
  <sparsity:sparsity for geom step 200
    nrows_g=26 nrows=26 sparsity=1.0000 nnzs=676, refcount: 7>
  <dData1D:(new from dSpData1D) n=676, refcount: 1>
refcount: 1>
new_DM -- step:   200
Re-using DM from previous geometries...
Number of DMs in history: 1
 DM extrapolation coefficients: 
1   1.00000
New DM after history re-use:
<dSpData2D:SpM extrapolated using coords
  <sparsity:sparsity for geom step 200
    nrows_g=26 nrows=26 sparsity=1.0000 nnzs=676, refcount: 9>
  <dData2D:(temp array for extrapolation) n=676 m=1, refcount: 1>
refcount: 1>
Note: For starting DM, Qtot, Tr[D*S] =         14.00000000         14.04645556
No. of atoms with KB's overlaping orbs in proc 0. Max # of overlaps:       4      26

InitMesh: MESH = 90 x 90 x 90 = 729000
InitMesh: Mesh cutoff (required, used) =   200.000   223.865 Ry
New grid distribution [1]: sub = 2

        iscf     Eharris(eV)        E_KS(eV)     FreeEng(eV)     dDmax    Ef(eV) dHmax(eV)
   scf:    1     -896.750057     -896.611930     -896.681182  0.032240 -6.388327  0.508712
   scf:    2     -896.320897     -896.521345     -896.582625  0.176680 -5.918781  0.276914
   scf:    3     -896.630708     -896.584989     -896.651849  0.071713 -6.044569  0.244885
   scf:    4     -896.590628     -896.611289     -896.680410  0.115412 -5.976785  0.073875
   scf:    5     -896.580559     -896.598682     -896.666722  0.039511 -5.991009  0.117987
   scf:    6     -896.613370     -896.613720     -896.683034  0.065621 -5.966055  0.022280
   scf:    7     -896.567690     -896.598496     -896.666511  0.066114 -5.961767  0.079862
   scf:    8     -896.614664     -896.613763     -896.683077  0.064093 -5.947886  0.003855
   scf:    9     -896.613782     -896.613776     -896.683091  0.001625 -5.947866  0.002206
   scf:   10     -896.613778     -896.613778     -896.683092  0.000864 -5.946629  0.001889
   scf:   11     -896.613778     -896.613778     -896.683092  0.000032 -5.946617  0.001849
   scf:   12     -896.613778     -896.613778     -896.683092  0.000132 -5.946483  0.001428
   scf:   13     -896.613778     -896.613778     -896.683092  0.000079 -5.946420  0.001178
   scf:   14     -896.613777     -896.613778     -896.683092  0.000193 -5.946578  0.000968

SCF Convergence by DM+H criterion
max |DM_out - DM_in|         :     0.0001925656
max |H_out - H_in|      (eV) :     0.0009681519
SCF cycle converged after 14 iterations

Using DM_out to compute the final energy and forces
No. of atoms with KB's overlaping orbs in proc 0. Max # of overlaps:       4      26

siesta: E_KS(eV) =             -896.6138

siesta: Atomic forces (eV/Ang):
----------------------------------------
   Tot    0.002713    0.002844   -0.002716
----------------------------------------
   Max   11.980289
   Res    7.118946    sqrt( Sum f_i^2 / 3N )
----------------------------------------
   Max   11.980289    constrained

Stress tensor Voigt[x,y,z,yz,xz,xy] (kbar):       -8.80       -2.63       -9.40       -4.14       -8.21       -3.83
(Free)E + p*V (eV/cell)     -892.3492
Target enthalpy (eV/cell)     -896.6831

siesta: Stress tensor (static) (eV/Ang**3):
        -0.004456   -0.001762   -0.004081
        -0.001762   -0.000582   -0.001777
        -0.004081   -0.001777   -0.003330

siesta: Pressure (static):          4.46891204  kBar

siesta: Stress tensor (total) (eV/Ang**3):
        -0.005490   -0.002393   -0.005124
        -0.002393   -0.001644   -0.002582
        -0.005124   -0.002582   -0.005867

siesta: Pressure (total):          6.94362733  kBar

siesta: Temp_ion =    3629.290 K

coxmol: Writing XMOL coordinates into file xoc.xyz                                                                                                                                                                                                                             

siesta: Program's energy decomposition (eV):
siesta: Ebs     =      -204.786725
siesta: Eions   =      1581.702395
siesta: Ena     =       341.228064
siesta: Ekin    =       625.820714
siesta: Enl     =       -90.003557
siesta: Eso     =         0.000000
siesta: Edftu   =         0.000000
siesta: DEna    =        12.110337
siesta: DUscf   =         0.986036
siesta: DUext   =         0.000000
siesta: Ex      =      -191.235406
siesta: Ec      =       -13.817569
siesta: Exc     =      -205.052975
siesta: EbV     =         0.000000
siesta: eta*DQ  =         0.000000
siesta: Emadel  =         0.000000
siesta: Emeta   =         0.000000
siesta: Emolmec =         0.000000
siesta: Ekinion =         1.407366
siesta: Eharris =      -895.206411
siesta: Etot    =      -895.206411
siesta: FreeEng =      -895.275726

siesta: Final energy (eV):
siesta:  Band Struct. =    -204.786725
siesta:       Kinetic =     625.820714
siesta:       Hartree =     871.658653
siesta:         Edftu =       0.000000
siesta:       Eso     =       0.000000
siesta:    Ext. field =       0.000000
siesta:         Exch. =    -191.235406
siesta:         Corr. =     -13.817569
siesta:     Bulk bias =       0.000000
siesta:   Exch.-corr. =    -205.052975
siesta:  Ion-electron =   -2312.548540
siesta:       Ion-ion =     123.508372
siesta:       Ekinion =       1.407366
siesta: D3 dispersion =       0.000000
siesta:         Total =    -895.206411
siesta:         Fermi =      -5.946578

siesta: Atomic forces (eV/Ang):
siesta:      1   -0.517472   -0.027851   -1.072407
siesta:      2    0.525301    0.061587    1.052700
siesta:      3   11.975174    4.571381   11.762972
siesta:      4  -11.980289   -4.602273  -11.745982
siesta: ----------------------------------------
siesta:    Tot    0.002713    0.002844   -0.002716

siesta: Stress tensor (static) (eV/Ang**3):
siesta:    -0.004456   -0.001762   -0.004081
siesta:    -0.001762   -0.000582   -0.001777
siesta:    -0.004081   -0.001777   -0.003330

siesta: Cell volume =       1000.001196 Ang**3

siesta: Pressure (static):
siesta:                Solid            Molecule  Units
siesta:           0.00003038         -0.00000163  Ry/Bohr**3
siesta:           0.00278928         -0.00015000  eV/Ang**3
siesta:           4.46891204         -0.24031938  kBar
(Free)E+ p_basis*V_orbitals  =        -895.924383
(Free)Eharris+ p_basis*V_orbitals  =        -895.924383

siesta: Electric dipole (a.u.)  =    1.783490   -0.182205   -1.965694
siesta: Electric dipole (Debye) =    4.533178   -0.463118   -4.996296

cite: Please see "xoc.bib" for an exhaustive BiBTeX file.
cite: Please clearly indicate Siesta version in published work: 5.2.1
cite: This calculation has made use of the following articles
cite: which are encouraged to be cited in a published work.
        Primary SIESTA paper
          DOI: www.doi.org/10.1088/0953-8984/14/11/302


timer: Elapsed wall time (sec) =     580.832
timer: CPU execution times (sec):

Routine            Calls   Time/call    Tot.time        %
siesta                 1    2297.537    2297.537   100.00
Setup                  1       1.084       1.084     0.05
bands                  1       0.000       0.000     0.00
KSV_init               1       0.000       0.000     0.00
IterGeom             200      11.482    2296.452    99.95
geom_init            200       0.230      45.982     2.00
state_init           200       0.001       0.139     0.01
hsparse              200       0.000       0.009     0.00
overlap              200       0.000       0.089     0.00
Setup_H0             200       0.103      20.691     0.90
naefs                400       0.000       0.009     0.00
dnaefs               400       0.000       0.006     0.00
MolMec               400       0.000       0.000     0.00
kinefsm              400       0.000       0.123     0.01
nlefsm               400       0.002       0.628     0.03
DHSCF_Init           200       0.100      20.072     0.87
DHSCF1               200       0.009       1.736     0.08
InitMesh             200       0.009       1.733     0.08
INITMESH             200       0.000       0.001     0.00
DHSCF2               200       0.092      18.336     0.80
REMESH               200       0.004       0.752     0.03
REORD              11484       0.002      27.203     1.18
PHION                200       0.045       8.949     0.39
COMM_BSC           17568       0.002      35.736     1.56
POISON              4442       0.166     739.078    32.17
fft                 8884       0.059     521.799    22.71
setup_H             4042       0.552    2229.551    97.04
DHSCF               4242       0.534    2267.072    98.67
DHSCF3              4242       0.531    2251.537    98.00
rhoofd              4242       0.037     155.114     6.75
XC                  4242       0.265    1125.016    48.97
GXC-CellXC          4242       0.251    1063.657    46.30
gridxc@cellXC       4242       0.251    1063.544    46.29
vmat                4242       0.004      18.052     0.79
IterSCF             3842       0.575    2209.400    96.16
compute_dm          3842       0.001       4.443     0.19
diagon              3842       0.001       4.383     0.19
r-eigvec            3842       0.001       3.755     0.16
r-buildHS           3842       0.000       0.010     0.00
rdiag               3842       0.001       3.726     0.16
rdiag1              3842       0.000       0.017     0.00
rdiag2              3842       0.000       0.057     0.00
rdiag3              3842       0.001       3.439     0.15
rdiag4              3842       0.000       0.156     0.01
r-buildD            3842       0.000       0.413     0.02
MIXER               3642       0.000       0.100     0.00
PostSCF              200       0.205      40.937     1.78
FINAL_HF             200       0.205      40.933     1.78
DHSCF4               200       0.078      15.520     0.68
dfscf                200       0.057      11.437     0.50
overfsm              200       0.000       0.038     0.00
writeHSX             200       0.000       0.018     0.00
state_analysis       200       0.000       0.022     0.00
siesta_move          200       0.000       0.050     0.00
Analysis               1       0.000       0.000     0.00
optical                1       0.000       0.000     0.00
  

>> End of run:  24-MAR-2025  17:20:32
Job completed
Job completed
