Executable      : siesta
Version         : 5.2.1
Architecture    : x86_64
Compiler version: GNU-13.3.0
Compiler flags  : -march=nocona -mtune=haswell -ftree-vectorize -fPIC -fstack-protector-strong -fno-plt -O2 -ffunction-sections -pipe -isystem <prefix>/include -I<prefix>/_build_env/include -fdebug-prefix-map=<prefix>/work=/usr/local/src/conda/siesta-5.2.1 -fdebug-prefix-map=<prefix>=/usr/local/src/conda-prefix -I<prefix>/lib -fallow-argument-mismatch -O3
Parallelisations: none
NetCDF support
NetCDF-4 support
Lua support
DFT-D3 support

Runtime information:
* Directory : /home/samba/homes/convidat/Desktop/Simulacions/0.38
* Running in serial mode.
>> Start of run:  25-MAR-2025  16:44:42

                           *********************** 
                           *  WELCOME TO SIESTA  * 
                           *********************** 

 NOTE: Siesta V5 introduces some new defaults for basis-set generation
 NOTE: which might lead to slightly different numerical results.
 NOTE: Please see the manual for full details and compatibility measures.


reinit: Reading from file xoc.fdf

reinit: -----------------------------------------------------------------------
reinit: System Name: H2 + O2 -> H2O2 reaction
reinit: -----------------------------------------------------------------------
reinit: System Label: xoc
reinit: -----------------------------------------------------------------------

initatom: Reading input for the pseudopotentials and atomic orbitals ----------
Species number:   1 Atomic number:    8 Label: O
Species number:   2 Atomic number:    1 Label: H

Ground state valence configuration (from tables):   2s02  2p04  3d00  4f00
Ground state valence configuration (from tables):   1s01  2p00  3d00  4f00

---- Processing specs for species: O
Reading pseudopotential information in formatted form from:
  O.psf

---- Processing specs for species: H
Reading pseudopotential information in unformatted form from:
  H.vps

---- Pseudopotential check for O 

Pseudopotential generated from a fully relativistic atomic calculation
There are spin-orbit semi-local pseudopotentials available

Pseudized shells:
2s( 2.00) rc: 1.14
2p( 4.00) rc: 1.14
3d( 0.00) rc: 1.14
4f( 0.00) rc: 1.14
Valence configuration for ps generation: (assumed as above)

---- Pseudopotential check for H 

Pseudized shells:
1s( 1.00) rc: 1.25
2p( 0.00) rc: 1.25
3d( 0.00) rc: 1.25
4f( 0.00) rc: 1.25
Valence configuration for ps generation: (assumed as above)
For O, standard SIESTA heuristics set lmxkb to 3
 (one more than the basis l, including polarization orbitals).
Use PS.lmax or PS.KBprojectors blocks to override.
For H, standard SIESTA heuristics set lmxkb to 2
 (one more than the basis l, including polarization orbitals).
Use PS.lmax or PS.KBprojectors blocks to override.

<basis_specs>
===============================================================================
O                    Z=   8    Mass=  15.999        Charge= 0.17977+309
Lmxo=2 Lmxkb= 3    BasisType=split      Semic=F
L=0  Nsemic=0  Cnfigmx=2
          i=1  nzeta=1  polorb=0  (2s)
            splnorm:   0.15000    
               vcte:    40.000    
               rinn:  -0.90000    
               qcoe:    0.0000    
               qyuk:    0.0000    
               qwid:   0.10000E-01
                rcs:    0.0000    
            lambdas:    1.0000    
L=1  Nsemic=0  Cnfigmx=2
          i=1  nzeta=1  polorb=1  (2p)  (to be polarized perturbatively)
            splnorm:   0.15000    
               vcte:    40.000    
               rinn:  -0.90000    
               qcoe:    0.0000    
               qyuk:    0.0000    
               qwid:   0.10000E-01
                rcs:    0.0000    
            lambdas:    1.0000    
L=2  Nsemic=0  Cnfigmx=3
          i=1  nzeta=0  polorb=0  (3d)  (perturbative polarization orbital) (from 2p)
-------------------------------------------------------------------------------
L=0  Nkbl=1  erefs: 0.17977+309
L=1  Nkbl=1  erefs: 0.17977+309
L=2  Nkbl=1  erefs: 0.17977+309
L=3  Nkbl=1  erefs: 0.17977+309
===============================================================================
</basis_specs>

Using PAO.SplitTailNorm
atom: Called for O                     (Z =   8)
Maximum radius (at nrval) set to   50.00000 8518

read_vps: Pseudopotential generation method:
read_vps: ATM3      Troullier-Martins                       
Valence charge in pseudo generation:    6.00000

read_vps: Pseudopotential includes a core correction:
read_vps: Pseudo-core for xc-correction

xc_check: Exchange-correlation functional:
xc_check: GGA Perdew, Burke & Ernzerhof 1996
V l=0 = -2*Zval/r beyond r=  1.1355
V l=1 = -2*Zval/r beyond r=  1.1355
V l=2 = -2*Zval/r beyond r=  1.1309
V l=3 = -2*Zval/r beyond r=  1.1286
All V_l potentials equal beyond r=  1.1355
This should be close to max(r_c) in ps generation
All pots = -2*Zval/r beyond r=  1.1355
Using small-core scheme (local charge) for Vlocal

VLOCAL_FROM_CHLOCAL: 99.0% of the norm of Vloc inside     33.667 Ry
VLOCAL_FROM_CHLOCAL: 99.9% of the norm of Vloc inside     76.727 Ry
atom: Maximum radius for chlocal:    1.37241
atom: Maximum radius for r*vlocal+2*Zval:    1.25469

KBgen: Kleinman-Bylander projectors: 
GHOST: No ghost state for L =  0
   l= 0   rc=  1.357289   el= -1.759790   Ekb=  9.151830   kbcos=  0.327271
GHOST: No ghost state for L =  1
   l= 1   rc=  1.345038   el= -0.663797   Ekb= -7.991133   kbcos= -0.393963
GHOST: No ghost state for L =  2
   l= 2   rc=  1.779310   el=  0.012956   Ekb= -1.983219   kbcos= -0.003702
GHOST: No ghost state for L =  3
   l= 3   rc=  2.085579   el=  0.019231   Ekb= -0.873623   kbcos= -0.000360

KBgen: Total number of Kleinman-Bylander projectors:  16
atom: -------------------------------------------------------------------------

atom: SANKEY-TYPE ORBITALS:

SPLIT: Orbitals with angular momentum L= 0

SPLIT: Basis orbitals for state 2s

SPLIT: PAO cut-off radius determined from an
SPLIT: energy shift=  0.010000 Ry
Split based on tail norm

   izeta = 1
                 lambda =    1.000000
                     rc =    3.532490
                 energy =   -1.748682
                kinetic =    1.612754
    potential(screened) =   -3.361436
       potential(ionic) =  -11.306460

SPLIT: Orbitals with angular momentum L= 1

SPLIT: Basis orbitals for state 2p

SPLIT: PAO cut-off radius determined from an
SPLIT: energy shift=  0.010000 Ry
Split based on tail norm

   izeta = 1
                 lambda =    1.000000
                     rc =    4.299534
                 energy =   -0.652755
                kinetic =    4.913628
    potential(screened) =   -5.566382
       potential(ionic) =  -13.292903

POLgen: Perturbative polarization orbital with L=  2

POLgen: Polarization orbital for state 2p
Split based on tail norm

   izeta = 1
                     rc =    4.299534
                 energy =    2.258078
                kinetic =    4.298689
    potential(screened) =   -2.040611
       potential(ionic) =   -8.188336
atom: Total number of Sankey-type orbitals:  9

atm_pop: Valence configuration (for local Pseudopot. screening):
 2s( 2.00)                                                            
 2p( 4.00)                                                            
 3d( 0.00)                                                            
Vna: chval, zval:    6.00000   6.00000

Vna:  Cut-off radius for the neutral-atom potential:   4.299534
comcore: Pseudo-core radius Rcore=  1.364142

atom: _________________________________________________________________________

<basis_specs>
===============================================================================
H                    Z=   1    Mass=  1.0080        Charge= 0.17977+309
Lmxo=1 Lmxkb= 2    BasisType=split      Semic=F
L=0  Nsemic=0  Cnfigmx=1
          i=1  nzeta=1  polorb=1  (1s)  (to be polarized perturbatively)
            splnorm:   0.15000    
               vcte:    40.000    
               rinn:  -0.90000    
               qcoe:    0.0000    
               qyuk:    0.0000    
               qwid:   0.10000E-01
                rcs:    0.0000    
            lambdas:    1.0000    
L=1  Nsemic=0  Cnfigmx=2
          i=1  nzeta=0  polorb=0  (2p)  (perturbative polarization orbital) (from 1s)
-------------------------------------------------------------------------------
L=0  Nkbl=1  erefs: 0.17977+309
L=1  Nkbl=1  erefs: 0.17977+309
L=2  Nkbl=1  erefs: 0.17977+309
===============================================================================
</basis_specs>

Using PAO.SplitTailNorm
atom: Called for H                     (Z =   1)
Maximum radius (at nrval) set to   50.00000 8518

read_vps: Pseudopotential generation method:
read_vps: ATM3      Troullier-Martins                       
Valence charge in pseudo generation:    1.00000

xc_check: Exchange-correlation functional:
xc_check: GGA Perdew, Burke & Ernzerhof 1996
V l=0 = -2*Zval/r beyond r=  1.2384
V l=1 = -2*Zval/r beyond r=  1.2321
V l=2 = -2*Zval/r beyond r=  1.2235
All V_l potentials equal beyond r=  1.2371
This should be close to max(r_c) in ps generation
All pots = -2*Zval/r beyond r=  1.2384
Using small-core scheme (local charge) for Vlocal

VLOCAL_FROM_CHLOCAL: 99.0% of the norm of Vloc inside     28.363 Ry
VLOCAL_FROM_CHLOCAL: 99.9% of the norm of Vloc inside     64.639 Ry
atom: Maximum radius for chlocal:    1.44620
atom: Maximum radius for r*vlocal+2*Zval:    1.31026

KBgen: Kleinman-Bylander projectors: 
GHOST: No ghost state for L =  0
   l= 0   rc=  1.362769   el= -0.477200   Ekb= -2.026093   kbcos= -0.345051
GHOST: No ghost state for L =  1
   l= 1   rc=  1.431710   el=  0.007219   Ekb= -0.445752   kbcos= -0.023729
GHOST: No ghost state for L =  2
   l= 2   rc=  1.471166   el=  0.012944   Ekb= -0.141918   kbcos= -0.003041

KBgen: Total number of Kleinman-Bylander projectors:   9
atom: -------------------------------------------------------------------------

atom: SANKEY-TYPE ORBITALS:

SPLIT: Orbitals with angular momentum L= 0

SPLIT: Basis orbitals for state 1s

SPLIT: PAO cut-off radius determined from an
SPLIT: energy shift=  0.010000 Ry
Split based on tail norm

   izeta = 1
                 lambda =    1.000000
                     rc =    5.232664
                 energy =   -0.466073
                kinetic =    0.944036
    potential(screened) =   -1.410108
       potential(ionic) =   -1.935607

POLgen: Perturbative polarization orbital with L=  1

POLgen: Polarization orbital for state 1s
Split based on tail norm

   izeta = 1
                     rc =    5.232664
                 energy =    0.681103
                kinetic =    1.331928
    potential(screened) =   -0.650824
       potential(ionic) =   -1.138826
atom: Total number of Sankey-type orbitals:  4

atm_pop: Valence configuration (for local Pseudopot. screening):
 1s( 1.00)                                                            
 2p( 0.00)                                                            
Vna: chval, zval:    1.00000   1.00000

Vna:  Cut-off radius for the neutral-atom potential:   5.232664

atom: _________________________________________________________________________

prinput: Basis input 

PAO.BasisType split     

%block ChemicalSpeciesLabel
    1    8 O                       # Species index, atomic number, species label
    2    1 H                       # Species index, atomic number, species label
%endblock ChemicalSpeciesLabel

%block PAO.Basis                 # Define Basis set
# WARNING: This information might be incomplete!
O                     2                    # Species label, number of l-shells
 n=2   0   1                         # n, l, Nzeta 
   3.532   
   1.000   
 n=2   1   1 P   1                   # n, l, Nzeta, Polarization, NzetaPol
   4.300   
   1.000   
H                     1                    # Species label, number of l-shells
 n=1   0   1 P   1                   # n, l, Nzeta, Polarization, NzetaPol
   5.233   
   1.000   
%endblock PAO.Basis

prinput: ----------------------------------------------------------------------

Dumping basis to NetCDF file O.ion.nc
Dumping basis to NetCDF file H.ion.nc
coor:   Atomic-coordinates input format  =     Cartesian coordinates
coor:                                          (in Angstroms)

ioxv: Reading coordinates and velocities from file
! Info in XV file prevails over previous structure input
WARNING: xoc.VERLET_RESTART not found--reading only XV file and moving back 1 time step using Euler

siesta: Atomic coordinates (Bohr) and species
siesta:      2.54735  -0.00100  -0.00070  1        1
siesta:      5.01155  -0.00100  -0.00070  1        2
siesta:     12.92289   0.01600   0.01130  2        3
siesta:     14.29278   0.01600   0.01130  2        4

siesta: System type = chain     

initatomlists: Number of atoms, orbitals, and projectors:      4    26    50

coxmol: Writing XMOL coordinates into file xoc.xyz                                                                                                                                                                                                                             

siesta: ******************** Simulation parameters ****************************
siesta:
siesta: The following are some of the parameters of the simulation.
siesta: A complete list of the parameters used, including default values,
siesta: can be found in file out.fdf
siesta:
redata: Spin configuration                          = none
redata: Number of spin components                   = 1
redata: Time-Reversal Symmetry                      = T
redata: Spin spiral                                 = F
redata: Long output                                 =   F
redata: Number of Atomic Species                    =        2
redata: Charge density info will appear in .RHO file
redata: Write Mulliken charges (when)               = none
redata: Write Mulliken Pop.                         = NO
redata: Write Hirshfeld charges (when)              = none
redata: Write Voronoi charges (when)                = none
redata: Write spin charge (when)                    = none
redata: Matel table size (NRTAB)                    =     1024
redata: Mesh Cutoff                                 =   200.0000 Ry
redata: Net charge of the system                    =     0.0000 |e|
redata: Min. number of SCF Iter                     =        0
redata: Max. number of SCF Iter                     =      250
redata: SCF convergence failure will abort job
redata: SCF mix quantity                            = Hamiltonian
redata: Mix DM or H after convergence               =   F
redata: Recompute H after scf cycle                 =   F
redata: Mix DM in first SCF step                    =   T
redata: Write Pulay info on disk                    =   F
redata: New DM Occupancy tolerance                  = 0.000000000001
redata: No kicks to SCF
redata: DM Mixing Weight for Kicks                  =     0.5000
redata: Require Harris convergence for SCF          =   F
redata: Harris energy tolerance for SCF             =     0.000100 eV
redata: Require DM convergence for SCF              =   T
redata: DM tolerance for SCF                        =     0.000300
redata: Require EDM convergence for SCF             =   F
redata: EDM tolerance for SCF                       =     0.001000 eV
redata: Require H convergence for SCF               =   T
redata: Hamiltonian tolerance for SCF               =     0.001000 eV
redata: Require (free) Energy convergence for SCF   =   F
redata: (free) Energy tolerance for SCF             =     0.000100 eV
redata: Using DFT-D3 dispersion                     =   F
redata: Using Saved Data (generic)                  =   F
redata: Use continuation files for DM               =   T
redata: Neglect nonoverlap interactions             =   F
redata: Method of Calculation                       = Diagonalization
redata: Electronic Temperature                      =   290.1130 K
redata: Fix the spin of the system                  =   F
redata: Max. number of TDED Iter                    =        1
redata: Number of TDED substeps                     =        3
redata: Dynamics option                             = Verlet MD run
redata: Initial MD time step                        =        1
redata:   Final MD time step                        =      200
redata: Length of MD time step                      =     1.0000 fs
redata: Initial Temperature of MD run               =     0.0000 K
redata: Perform a MD quench                         =   F
mix.SCF: Pulay mixing                            = Pulay
mix.SCF:    Variant                              = stable
mix.SCF:    History steps                        = 6
mix.SCF:    Linear mixing weight                 =     0.020000
mix.SCF:    Mixing weight                        =     0.020000
mix.SCF:    SVD condition                        = 0.1000E-07
redata: Save all siesta data in one NC              =   F
redata: ***********************************************************************

%block SCF.Mixers
  Pulay
%endblock SCF.Mixers

%block SCF.Mixer.Pulay
  # Mixing method
  method pulay
  variant stable

  # Mixing options
  weight 0.0200
  weight.linear 0.0200
  history 6
%endblock SCF.Mixer.Pulay

Size of DM history Fstack: 1
Total number of electrons:    14.000000
Total ionic charge:    14.000000
 Kpoints in:            1 . Kpoints trimmed:            1

siesta: k-grid: Number of k-points = 1
siesta: k-points from Monkhorst-Pack grid
siesta: k-cutoff (effective) =     5.000 Ang
siesta: k-point supercell and displacements
siesta: k-grid:     1     0     0      0.000
siesta: k-grid:     0     1     0      0.000
siesta: k-grid:     0     0     1      0.000

diag: Algorithm                                     = D&C
diag: Used triangular part                          = Lower
diag: Absolute tolerance                            =  0.100E-15
diag: Orthogonalization factor                      =  0.100E-05
diag: Memory factor                                 =  1.0000


ts: **************************************************************
ts: Save H and S matrices                           =    F
ts: Save DM and EDM matrices                        =    F
ts: Only save the overlap matrix S                  =    F
ts: **************************************************************

************************ Begin: TS CHECKS AND WARNINGS ************************
************************ End: TS CHECKS AND WARNINGS **************************


                     ====================================
                        Begin MD step =      1
                     ====================================

outcell: Unit cell vectors (Ang):
       10.000004    0.000000    0.000000
        0.000000   10.000004    0.000000
        0.000000    0.000000   10.000004

outcell: Cell vector modules (Ang)   :   10.000004   10.000004   10.000004
outcell: Cell angles (23,13,12) (deg):     90.0000     90.0000     90.0000
outcell: Cell volume (Ang**3)        :   1000.0012
Gamma-point calculation with multiply-connected orbital pairs
Gamma-point calculation with multiply-connected orbital pairs
Folding of H and S implicitly performed
Folding of H and S implicitly performed
<dSpData1D:S at geom step 1
  <sparsity:sparsity for geom step 1
    nrows_g=26 nrows=26 sparsity=1.0000 nnzs=676, refcount: 7>
  <dData1D:(new from dSpData1D) n=676, refcount: 1>
refcount: 1>
new_DM -- step:     1
Initializing Density Matrix...

Attempting to read DM from file... Failed...
DM filled with atomic data:
<dSpData2D:DM initialized from atoms
  <sparsity:sparsity for geom step 1
    nrows_g=26 nrows=26 sparsity=1.0000 nnzs=676, refcount: 8>
  <dData2D:DM n=676 m=1, refcount: 1>
refcount: 1>
No. of atoms with KB's overlaping orbs in proc 0. Max # of overlaps:       4      22

InitMesh: MESH = 90 x 90 x 90 = 729000
InitMesh: Mesh cutoff (required, used) =   200.000   223.865 Ry
New grid distribution [1]: sub = 2

stepf: Fermi-Dirac step function

siesta: Program's energy decomposition (eV):
siesta: Ebs     =      -210.155725
siesta: Eions   =      1581.702395
siesta: Ena     =       338.517809
siesta: Ekin    =       624.679850
siesta: Enl     =       -90.877065
siesta: Eso     =         0.000000
siesta: Edftu   =         0.000000
siesta: DEna    =        14.305970
siesta: DUscf   =         1.601268
siesta: DUext   =         0.000000
siesta: Ex      =      -190.531229
siesta: Ec      =       -13.816933
siesta: Exc     =      -204.348162
siesta: EbV     =         0.000000
siesta: eta*DQ  =         0.000000
siesta: Emadel  =         0.000000
siesta: Emeta   =         0.000000
siesta: Emolmec =         0.000000
siesta: Ekinion =         0.000000
siesta: Eharris =      -900.238566
siesta: Etot    =      -897.822726
siesta: FreeEng =      -897.892040

        iscf     Eharris(eV)        E_KS(eV)     FreeEng(eV)     dDmax    Ef(eV) dHmax(eV)
   scf:    1     -900.238566     -897.822726     -897.892040  0.774864 -4.685387  2.425076
timer: Routine,Calls,Time,% = IterSCF        1       0.583  26.38
   scf:    2     -897.860682     -897.841762     -897.911076  0.001845 -4.718002  2.359036
   scf:    3     -898.283464     -898.126761     -898.196076  0.064676 -5.797840  0.206911
   scf:    4     -898.126628     -898.128107     -898.197422  0.009216 -5.711648  0.385178
   scf:    5     -898.131258     -898.130179     -898.199494  0.008392 -5.922413  0.052156
   scf:    6     -898.130416     -898.130379     -898.199694  0.002024 -5.905388  0.015913
   scf:    7     -898.130411     -898.130396     -898.199711  0.000312 -5.910013  0.006999
   scf:    8     -898.130403     -898.130400     -898.199715  0.000334 -5.908823  0.001838
   scf:    9     -898.130401     -898.130400     -898.199715  0.000334 -5.909266  0.000188
   scf:   10     -898.130400     -898.130400     -898.199715  0.000004 -5.909234  0.000172

SCF Convergence by DM+H criterion
max |DM_out - DM_in|         :     0.0000042655
max |H_out - H_in|      (eV) :     0.0001721804
SCF cycle converged after 10 iterations

Using DM_out to compute the final energy and forces
No. of atoms with KB's overlaping orbs in proc 0. Max # of overlaps:       4      22

siesta: E_KS(eV) =             -898.1304

siesta: E_KS - E_eggbox =      -898.1304

siesta: Atomic forces (eV/Ang):
----------------------------------------
   Tot    0.007160   -0.000408   -0.000275
----------------------------------------
   Max    5.166871
   Res    2.105863    sqrt( Sum f_i^2 / 3N )
----------------------------------------
   Max    5.166871    constrained

Stress tensor Voigt[x,y,z,yz,xz,xy] (kbar):      -19.55       -0.42       -0.25       -0.10       -0.04        0.20
(Free)E + p*V (eV/cell)     -893.9942
Target enthalpy (eV/cell)     -898.1997

siesta: Stress tensor (static) (eV/Ang**3):
        -0.003684   -0.000000   -0.000000
        -0.000000    0.000006    0.000000
        -0.000000    0.000000    0.000006

siesta: Pressure (static):          1.96112189  kBar

siesta: Stress tensor (total) (eV/Ang**3):
        -0.012204    0.000128   -0.000024
         0.000128   -0.000259   -0.000060
        -0.000024   -0.000060   -0.000154

siesta: Pressure (total):          6.73797275  kBar

siesta: Temp_ion =   11532.877 K

                     ====================================
                        Begin MD step =      2
                     ====================================

outcell: Unit cell vectors (Ang):
       10.000004    0.000000    0.000000
        0.000000   10.000004    0.000000
        0.000000    0.000000   10.000004

outcell: Cell vector modules (Ang)   :   10.000004   10.000004   10.000004
outcell: Cell angles (23,13,12) (deg):     90.0000     90.0000     90.0000
outcell: Cell volume (Ang**3)        :   1000.0012
<dSpData1D:S at geom step 2
  <sparsity:sparsity for geom step 2
    nrows_g=26 nrows=26 sparsity=.9763 nnzs=660, refcount: 7>
  <dData1D:(new from dSpData1D) n=660, refcount: 1>
refcount: 1>
new_DM -- step:     2
Re-using DM from previous geometries...
Number of DMs in history: 1
 DM extrapolation coefficients: 
1   1.00000
New DM after history re-use:
<dSpData2D:SpM extrapolated using coords
  <sparsity:sparsity for geom step 2
    nrows_g=26 nrows=26 sparsity=.9763 nnzs=660, refcount: 9>
  <dData2D:(temp array for extrapolation) n=660 m=1, refcount: 1>
refcount: 1>
Note: For starting DM, Qtot, Tr[D*S] =         14.00000000         13.97895312
No. of atoms with KB's overlaping orbs in proc 0. Max # of overlaps:       4      18

InitMesh: MESH = 90 x 90 x 90 = 729000
InitMesh: Mesh cutoff (required, used) =   200.000   223.865 Ry
New grid distribution [1]: sub = 2

        iscf     Eharris(eV)        E_KS(eV)     FreeEng(eV)     dDmax    Ef(eV) dHmax(eV)
   scf:    1     -898.107766     -898.328144     -898.397458  0.012560 -5.642661  0.282333
   scf:    2     -898.326570     -898.328271     -898.397577  0.011415 -5.892333  0.135294
   scf:    3     -898.329591     -898.329000     -898.398312  0.004268 -5.834646  0.075514
   scf:    4     -898.329022     -898.329188     -898.398498  0.011532 -5.847502  0.025483
   scf:    5     -898.329138     -898.329244     -898.398557  0.009468 -5.850672  0.020378
   scf:    6     -898.329305     -898.329276     -898.398590  0.001092 -5.869178  0.013584
   scf:    7     -898.329307     -898.329301     -898.398616  0.002839 -5.864749  0.000950
   scf:    8     -898.329301     -898.329301     -898.398616  0.000206 -5.865140  0.000252

SCF Convergence by DM+H criterion
max |DM_out - DM_in|         :     0.0002055034
max |H_out - H_in|      (eV) :     0.0002522704
SCF cycle converged after 8 iterations

Using DM_out to compute the final energy and forces
No. of atoms with KB's overlaping orbs in proc 0. Max # of overlaps:       4      18

siesta: E_KS(eV) =             -898.3293

siesta: Atomic forces (eV/Ang):
----------------------------------------
   Tot    0.000693    0.000169    0.000169
----------------------------------------
   Max    2.718789
   Res    1.134250    sqrt( Sum f_i^2 / 3N )
----------------------------------------
   Max    2.718789    constrained

Stress tensor Voigt[x,y,z,yz,xz,xy] (kbar):      -18.05       -0.42       -0.26       -0.11       -0.27        0.04
(Free)E + p*V (eV/cell)     -894.5012
Target enthalpy (eV/cell)     -898.3986

siesta: Stress tensor (static) (eV/Ang**3):
        -0.002745   -0.000104   -0.000145
        -0.000104    0.000001   -0.000007
        -0.000145   -0.000007   -0.000004

siesta: Pressure (static):          1.46745122  kBar

siesta: Stress tensor (total) (eV/Ang**3):
        -0.011264    0.000024   -0.000169
         0.000024   -0.000264   -0.000066
        -0.000169   -0.000066   -0.000164

siesta: Pressure (total):          6.24430207  kBar

siesta: Temp_ion =   11924.185 K

                     ====================================
                        Begin MD step =      3
                     ====================================

outcell: Unit cell vectors (Ang):
       10.000004    0.000000    0.000000
        0.000000   10.000004    0.000000
        0.000000    0.000000   10.000004

outcell: Cell vector modules (Ang)   :   10.000004   10.000004   10.000004
outcell: Cell angles (23,13,12) (deg):     90.0000     90.0000     90.0000
outcell: Cell volume (Ang**3)        :   1000.0012
Gamma-point calculation with multiply-connected orbital pairs
Gamma-point calculation with multiply-connected orbital pairs
Folding of H and S implicitly performed
Folding of H and S implicitly performed
<dSpData1D:S at geom step 3
  <sparsity:sparsity for geom step 3
    nrows_g=26 nrows=26 sparsity=1.0000 nnzs=676, refcount: 7>
  <dData1D:(new from dSpData1D) n=676, refcount: 1>
refcount: 1>
new_DM -- step:     3
Re-using DM from previous geometries...
Number of DMs in history: 1
 DM extrapolation coefficients: 
1   1.00000
New DM after history re-use:
<dSpData2D:SpM extrapolated using coords
  <sparsity:sparsity for geom step 3
    nrows_g=26 nrows=26 sparsity=1.0000 nnzs=676, refcount: 9>
  <dData2D:(temp array for extrapolation) n=676 m=1, refcount: 1>
refcount: 1>
Note: For starting DM, Qtot, Tr[D*S] =         14.00000000         13.94835259
No. of atoms with KB's overlaping orbs in proc 0. Max # of overlaps:       4      22

InitMesh: MESH = 90 x 90 x 90 = 729000
InitMesh: Mesh cutoff (required, used) =   200.000   223.865 Ry
New grid distribution [1]: sub = 2

        iscf     Eharris(eV)        E_KS(eV)     FreeEng(eV)     dDmax    Ef(eV) dHmax(eV)
   scf:    1     -898.077780     -898.419100     -898.488413  0.024342 -5.315116  0.625867
   scf:    2     -898.407779     -898.417231     -898.486399  0.032769 -5.875646  0.263197
   scf:    3     -898.422946     -898.420383     -898.489647  0.012406 -5.769647  0.163682
   scf:    4     -898.418778     -898.421324     -898.490572  0.037893 -5.797207  0.052968
   scf:    5     -898.421893     -898.422163     -898.491476  0.023547 -5.802535  0.041562
   scf:    6     -898.422248     -898.422209     -898.491522  0.000933 -5.828464  0.035023
   scf:    7     -898.422390     -898.422325     -898.491640  0.002476 -5.827810  0.001995
   scf:    8     -898.422324     -898.422325     -898.491640  0.000471 -5.828035  0.001587
   scf:    9     -898.422324     -898.422325     -898.491639  0.000172 -5.828847  0.000903

SCF Convergence by DM+H criterion
max |DM_out - DM_in|         :     0.0001724449
max |H_out - H_in|      (eV) :     0.0009027180
SCF cycle converged after 9 iterations

Using DM_out to compute the final energy and forces
No. of atoms with KB's overlaping orbs in proc 0. Max # of overlaps:       4      22

siesta: E_KS(eV) =             -898.4223

siesta: Atomic forces (eV/Ang):
----------------------------------------
   Tot    0.000449   -0.000086    0.000195
----------------------------------------
   Max    1.042117
   Res    0.489148    sqrt( Sum f_i^2 / 3N )
----------------------------------------
   Max    1.042117    constrained

Stress tensor Voigt[x,y,z,yz,xz,xy] (kbar):      -15.29       -0.42       -0.25       -0.10       -0.27       -0.01
(Free)E + p*V (eV/cell)     -895.1706
Target enthalpy (eV/cell)     -898.4916

siesta: Stress tensor (static) (eV/Ang**3):
        -0.000738    0.000011    0.000073
         0.000011    0.000008    0.000006
         0.000073    0.000006    0.000014

siesta: Pressure (static):          0.38200846  kBar

siesta: Stress tensor (total) (eV/Ang**3):
        -0.009546   -0.000009   -0.000170
        -0.000009   -0.000262   -0.000061
        -0.000170   -0.000061   -0.000156

siesta: Pressure (total):          5.32093674  kBar

siesta: Temp_ion =   12156.699 K

                     ====================================
                        Begin MD step =      4
                     ====================================

outcell: Unit cell vectors (Ang):
       10.000004    0.000000    0.000000
        0.000000   10.000004    0.000000
        0.000000    0.000000   10.000004

outcell: Cell vector modules (Ang)   :   10.000004   10.000004   10.000004
outcell: Cell angles (23,13,12) (deg):     90.0000     90.0000     90.0000
outcell: Cell volume (Ang**3)        :   1000.0012
<dSpData1D:S at geom step 4
  <sparsity:sparsity for geom step 4
    nrows_g=26 nrows=26 sparsity=1.0000 nnzs=676, refcount: 7>
  <dData1D:(new from dSpData1D) n=676, refcount: 1>
refcount: 1>
new_DM -- step:     4
Re-using DM from previous geometries...
Number of DMs in history: 1
 DM extrapolation coefficients: 
1   1.00000
New DM after history re-use:
<dSpData2D:SpM extrapolated using coords
  <sparsity:sparsity for geom step 4
    nrows_g=26 nrows=26 sparsity=1.0000 nnzs=676, refcount: 9>
  <dData2D:(temp array for extrapolation) n=676 m=1, refcount: 1>
refcount: 1>
Note: For starting DM, Qtot, Tr[D*S] =         14.00000000         13.94490584
No. of atoms with KB's overlaping orbs in proc 0. Max # of overlaps:       4      22

InitMesh: MESH = 90 x 90 x 90 = 729000
InitMesh: Mesh cutoff (required, used) =   200.000   223.865 Ry
New grid distribution [1]: sub = 2

        iscf     Eharris(eV)        E_KS(eV)     FreeEng(eV)     dDmax    Ef(eV) dHmax(eV)
   scf:    1     -897.886847     -898.258178     -898.327485  0.022230 -5.256386  0.680805
   scf:    2     -898.203823     -898.242919     -898.311141  0.101164 -5.852735  0.418162
   scf:    3     -898.264552     -898.255224     -898.324182  0.039191 -5.723772  0.275885
   scf:    4     -898.249424     -898.259035     -898.328160  0.087450 -5.767006  0.108493
   scf:    5     -898.259748     -898.261396     -898.330694  0.047700 -5.771596  0.039666
   scf:    6     -898.261620     -898.261531     -898.330842  0.005120 -5.777451  0.041198
   scf:    7     -898.261819     -898.261719     -898.331034  0.004890 -5.803454  0.002152
   scf:    8     -898.261722     -898.261721     -898.331036  0.000669 -5.802603  0.002470
   scf:    9     -898.261720     -898.261721     -898.331035  0.000662 -5.804066  0.001640
   scf:   10     -898.261720     -898.261720     -898.331035  0.000055 -5.804167  0.001363
   scf:   11     -898.261721     -898.261721     -898.331036  0.000531 -5.804706  0.000118
   scf:   12     -898.261721     -898.261721     -898.331036  0.000001 -5.804705  0.000114

SCF Convergence by DM+H criterion
max |DM_out - DM_in|         :     0.0000005502
max |H_out - H_in|      (eV) :     0.0001136127
SCF cycle converged after 12 iterations

Using DM_out to compute the final energy and forces
No. of atoms with KB's overlaping orbs in proc 0. Max # of overlaps:       4      22

siesta: E_KS(eV) =             -898.2617

siesta: Atomic forces (eV/Ang):
----------------------------------------
   Tot   -0.001333   -0.000052    0.000171
----------------------------------------
   Max    2.308647
   Res    1.131135    sqrt( Sum f_i^2 / 3N )
----------------------------------------
   Max    2.308647    constrained

Stress tensor Voigt[x,y,z,yz,xz,xy] (kbar):      -13.65       -0.39       -0.17       -0.04        0.15        0.17
(Free)E + p*V (eV/cell)     -895.3759
Target enthalpy (eV/cell)     -898.3310

siesta: Stress tensor (static) (eV/Ang**3):
         0.000460    0.000183    0.000398
         0.000183    0.000030    0.000044
         0.000398    0.000044    0.000073

siesta: Pressure (static):         -0.30055427  kBar

siesta: Stress tensor (total) (eV/Ang**3):
        -0.008519    0.000109    0.000094
         0.000109   -0.000243   -0.000026
         0.000094   -0.000026   -0.000104

siesta: Pressure (total):          4.73467996  kBar

siesta: Temp_ion =   11793.271 K

                     ====================================
                        Begin MD step =      5
                     ====================================

outcell: Unit cell vectors (Ang):
       10.000004    0.000000    0.000000
        0.000000   10.000004    0.000000
        0.000000    0.000000   10.000004

outcell: Cell vector modules (Ang)   :   10.000004   10.000004   10.000004
outcell: Cell angles (23,13,12) (deg):     90.0000     90.0000     90.0000
outcell: Cell volume (Ang**3)        :   1000.0012
<dSpData1D:S at geom step 5
  <sparsity:sparsity for geom step 5
    nrows_g=26 nrows=26 sparsity=1.0000 nnzs=676, refcount: 7>
  <dData1D:(new from dSpData1D) n=676, refcount: 1>
refcount: 1>
new_DM -- step:     5
Re-using DM from previous geometries...
Number of DMs in history: 1
 DM extrapolation coefficients: 
1   1.00000
New DM after history re-use:
<dSpData2D:SpM extrapolated using coords
  <sparsity:sparsity for geom step 5
    nrows_g=26 nrows=26 sparsity=1.0000 nnzs=676, refcount: 9>
  <dData2D:(temp array for extrapolation) n=676 m=1, refcount: 1>
refcount: 1>
Note: For starting DM, Qtot, Tr[D*S] =         14.00000000         13.96636918
No. of atoms with KB's overlaping orbs in proc 0. Max # of overlaps:       4      22

InitMesh: MESH = 90 x 90 x 90 = 729000
InitMesh: Mesh cutoff (required, used) =   200.000   223.865 Ry
New grid distribution [1]: sub = 2

        iscf     Eharris(eV)        E_KS(eV)     FreeEng(eV)     dDmax    Ef(eV) dHmax(eV)
   scf:    1     -897.852823     -898.105159     -898.174473  0.013088 -5.450919  0.438019
   scf:    2     -898.095447     -898.102880     -898.172150  0.026102 -5.828172  0.257445
   scf:    3     -898.107182     -898.105267     -898.174568  0.009723 -5.740847  0.174020
   scf:    4     -898.105317     -898.106213     -898.175499  0.026608 -5.777386  0.031888
   scf:    5     -898.106450     -898.106570     -898.175883  0.016094 -5.780540  0.026312
   scf:    6     -898.106593     -898.106583     -898.175897  0.001038 -5.790580  0.020797
   scf:    7     -898.106658     -898.106637     -898.175952  0.003419 -5.795504  0.001624
   scf:    8     -898.106636     -898.106637     -898.175951  0.000324 -5.795879  0.000576
   scf:    9     -898.106637     -898.106637     -898.175951  0.000021 -5.796037  0.000512

SCF Convergence by DM+H criterion
max |DM_out - DM_in|         :     0.0000212650
max |H_out - H_in|      (eV) :     0.0005122926
SCF cycle converged after 9 iterations

Using DM_out to compute the final energy and forces
No. of atoms with KB's overlaping orbs in proc 0. Max # of overlaps:       4      22

siesta: E_KS(eV) =             -898.1066

siesta: Atomic forces (eV/Ang):
----------------------------------------
   Tot    0.000442    0.000459    0.000159
----------------------------------------
   Max    2.899468
   Res    1.419569    sqrt( Sum f_i^2 / 3N )
----------------------------------------
   Max    2.899468    constrained

Stress tensor Voigt[x,y,z,yz,xz,xy] (kbar):      -12.68       -0.33       -0.02        0.06        0.71        0.43
(Free)E + p*V (eV/cell)     -895.4649
Target enthalpy (eV/cell)     -898.1760

siesta: Stress tensor (static) (eV/Ang**3):
         0.000819    0.000295    0.000643
         0.000295    0.000055    0.000089
         0.000643    0.000089    0.000140

siesta: Pressure (static):         -0.54110058  kBar

siesta: Stress tensor (total) (eV/Ang**3):
        -0.007914    0.000265    0.000441
         0.000266   -0.000208    0.000035
         0.000441    0.000035   -0.000011

siesta: Pressure (total):          4.34360407  kBar

siesta: Temp_ion =   11416.680 K

                     ====================================
                        Begin MD step =      6
                     ====================================

outcell: Unit cell vectors (Ang):
       10.000004    0.000000    0.000000
        0.000000   10.000004    0.000000
        0.000000    0.000000   10.000004

outcell: Cell vector modules (Ang)   :   10.000004   10.000004   10.000004
outcell: Cell angles (23,13,12) (deg):     90.0000     90.0000     90.0000
outcell: Cell volume (Ang**3)        :   1000.0012
<dSpData1D:S at geom step 6
  <sparsity:sparsity for geom step 6
    nrows_g=26 nrows=26 sparsity=.9882 nnzs=668, refcount: 7>
  <dData1D:(new from dSpData1D) n=668, refcount: 1>
refcount: 1>
new_DM -- step:     6
Re-using DM from previous geometries...
Number of DMs in history: 1
 DM extrapolation coefficients: 
1   1.00000
New DM after history re-use:
<dSpData2D:SpM extrapolated using coords
  <sparsity:sparsity for geom step 6
    nrows_g=26 nrows=26 sparsity=.9882 nnzs=668, refcount: 9>
  <dData2D:(temp array for extrapolation) n=668 m=1, refcount: 1>
refcount: 1>
No. of atoms with KB's overlaping orbs in proc 0. Max # of overlaps:       4      22

InitMesh: MESH = 90 x 90 x 90 = 729000
InitMesh: Mesh cutoff (required, used) =   200.000   223.865 Ry
New grid distribution [1]: sub = 2

        iscf     Eharris(eV)        E_KS(eV)     FreeEng(eV)     dDmax    Ef(eV) dHmax(eV)
   scf:    1     -898.053366     -898.104587     -898.173899  0.012684 -5.772494  0.053844
   scf:    2     -898.091755     -898.100585     -898.169571  0.043598 -5.811289  0.097886
   scf:    3     -898.105923     -898.104421     -898.173716  0.030313 -5.787569  0.041644
   scf:    4     -898.104466     -898.104630     -898.173944  0.012007 -5.799394  0.023544
   scf:    5     -898.104644     -898.104661     -898.173975  0.004124 -5.802243  0.005526
   scf:    6     -898.104664     -898.104663     -898.173977  0.000761 -5.804301  0.002681
   scf:    7     -898.104664     -898.104664     -898.173978  0.000473 -5.806919  0.000259
   scf:    8     -898.104664     -898.104664     -898.173978  0.000166 -5.806905  0.000194

SCF Convergence by DM+H criterion
max |DM_out - DM_in|         :     0.0001659906
max |H_out - H_in|      (eV) :     0.0001935831
SCF cycle converged after 8 iterations

Using DM_out to compute the final energy and forces
No. of atoms with KB's overlaping orbs in proc 0. Max # of overlaps:       4      22

siesta: E_KS(eV) =             -898.1047

siesta: Atomic forces (eV/Ang):
----------------------------------------
   Tot   -0.000509    0.000669   -0.000417
----------------------------------------
   Max    2.892808
   Res    1.465261    sqrt( Sum f_i^2 / 3N )
----------------------------------------
   Max    2.892808    constrained

Stress tensor Voigt[x,y,z,yz,xz,xy] (kbar):      -12.61       -0.28        0.14        0.16        1.12        0.58
(Free)E + p*V (eV/cell)     -895.5222
Target enthalpy (eV/cell)     -898.1740

siesta: Stress tensor (static) (eV/Ang**3):
         0.000638    0.000319    0.000752
         0.000319    0.000071    0.000122
         0.000752    0.000122    0.000190

siesta: Pressure (static):         -0.48011345  kBar

siesta: Stress tensor (total) (eV/Ang**3):
        -0.007870    0.000359    0.000700
         0.000359   -0.000173    0.000101
         0.000700    0.000101    0.000087

siesta: Pressure (total):          4.24860921  kBar

siesta: Temp_ion =   11412.442 K

                     ====================================
                        Begin MD step =      7
                     ====================================

outcell: Unit cell vectors (Ang):
       10.000004    0.000000    0.000000
        0.000000   10.000004    0.000000
        0.000000    0.000000   10.000004

outcell: Cell vector modules (Ang)   :   10.000004   10.000004   10.000004
outcell: Cell angles (23,13,12) (deg):     90.0000     90.0000     90.0000
outcell: Cell volume (Ang**3)        :   1000.0012
Gamma-point calculation with multiply-connected orbital pairs
Gamma-point calculation with multiply-connected orbital pairs
Folding of H and S implicitly performed
Folding of H and S implicitly performed
<dSpData1D:S at geom step 7
  <sparsity:sparsity for geom step 7
    nrows_g=26 nrows=26 sparsity=1.0000 nnzs=676, refcount: 7>
  <dData1D:(new from dSpData1D) n=676, refcount: 1>
refcount: 1>
new_DM -- step:     7
Re-using DM from previous geometries...
Number of DMs in history: 1
 DM extrapolation coefficients: 
1   1.00000
New DM after history re-use:
<dSpData2D:SpM extrapolated using coords
  <sparsity:sparsity for geom step 7
    nrows_g=26 nrows=26 sparsity=1.0000 nnzs=676, refcount: 9>
  <dData2D:(temp array for extrapolation) n=676 m=1, refcount: 1>
refcount: 1>
Note: For starting DM, Qtot, Tr[D*S] =         14.00000000         14.03470151
No. of atoms with KB's overlaping orbs in proc 0. Max # of overlaps:       4      26

InitMesh: MESH = 90 x 90 x 90 = 729000
InitMesh: Mesh cutoff (required, used) =   200.000   223.865 Ry
New grid distribution [1]: sub = 2

        iscf     Eharris(eV)        E_KS(eV)     FreeEng(eV)     dDmax    Ef(eV) dHmax(eV)
   scf:    1     -898.409516     -898.260219     -898.329533  0.012992 -6.119902  0.429334
   scf:    2     -898.206673     -898.244407     -898.313607  0.049745 -5.806055  0.518075
   scf:    3     -898.268994     -898.259894     -898.329196  0.029118 -5.961196  0.292387
   scf:    4     -898.258898     -898.261057     -898.330292  0.038425 -5.854029  0.039959
   scf:    5     -898.262042     -898.261972     -898.331287  0.022796 -5.846752  0.024333
   scf:    6     -898.261983     -898.261983     -898.331298  0.002045 -5.849323  0.019040
   scf:    7     -898.262038     -898.262018     -898.331332  0.001005 -5.837325  0.001252
   scf:    8     -898.262018     -898.262018     -898.331332  0.000071 -5.837627  0.001055
   scf:    9     -898.262018     -898.262018     -898.331332  0.000225 -5.836933  0.000377

SCF Convergence by DM+H criterion
max |DM_out - DM_in|         :     0.0002245977
max |H_out - H_in|      (eV) :     0.0003768736
SCF cycle converged after 9 iterations

Using DM_out to compute the final energy and forces
No. of atoms with KB's overlaping orbs in proc 0. Max # of overlaps:       4      26

siesta: E_KS(eV) =             -898.2620

siesta: Atomic forces (eV/Ang):
----------------------------------------
   Tot    0.000545    0.000074   -0.000473
----------------------------------------
   Max    2.331876
   Res    1.282744    sqrt( Sum f_i^2 / 3N )
----------------------------------------
   Max    2.331876    constrained

Stress tensor Voigt[x,y,z,yz,xz,xy] (kbar):      -13.78       -0.25        0.22        0.22        1.15        0.49
(Free)E + p*V (eV/cell)     -895.4584
Target enthalpy (eV/cell)     -898.3313

siesta: Stress tensor (static) (eV/Ang**3):
        -0.000030    0.000229    0.000668
         0.000229    0.000068    0.000126
         0.000668    0.000126    0.000194

siesta: Pressure (static):         -0.12410494  kBar

siesta: Stress tensor (total) (eV/Ang**3):
        -0.008600    0.000303    0.000718
         0.000303   -0.000159    0.000137
         0.000718    0.000137    0.000140

siesta: Pressure (total):          4.60286225  kBar

siesta: Temp_ion =   11798.241 K

                     ====================================
                        Begin MD step =      8
                     ====================================

outcell: Unit cell vectors (Ang):
       10.000004    0.000000    0.000000
        0.000000   10.000004    0.000000
        0.000000    0.000000   10.000004

outcell: Cell vector modules (Ang)   :   10.000004   10.000004   10.000004
outcell: Cell angles (23,13,12) (deg):     90.0000     90.0000     90.0000
outcell: Cell volume (Ang**3)        :   1000.0012
<dSpData1D:S at geom step 8
  <sparsity:sparsity for geom step 8
    nrows_g=26 nrows=26 sparsity=1.0000 nnzs=676, refcount: 7>
  <dData1D:(new from dSpData1D) n=676, refcount: 1>
refcount: 1>
new_DM -- step:     8
Re-using DM from previous geometries...
Number of DMs in history: 1
 DM extrapolation coefficients: 
1   1.00000
New DM after history re-use:
<dSpData2D:SpM extrapolated using coords
  <sparsity:sparsity for geom step 8
    nrows_g=26 nrows=26 sparsity=1.0000 nnzs=676, refcount: 9>
  <dData2D:(temp array for extrapolation) n=676 m=1, refcount: 1>
refcount: 1>
Note: For starting DM, Qtot, Tr[D*S] =         14.00000000         14.06095192
No. of atoms with KB's overlaping orbs in proc 0. Max # of overlaps:       4      26

InitMesh: MESH = 90 x 90 x 90 = 729000
InitMesh: Mesh cutoff (required, used) =   200.000   223.865 Ry
New grid distribution [1]: sub = 2

        iscf     Eharris(eV)        E_KS(eV)     FreeEng(eV)     dDmax    Ef(eV) dHmax(eV)
   scf:    1     -898.718916     -898.442281     -898.511592  0.022253 -6.394025  0.807847
   scf:    2     -898.219088     -898.376160     -898.445204  0.060606 -5.818599  1.029146
   scf:    3     -898.478810     -898.442427     -898.511718  0.036408 -6.126754  0.548415
   scf:    4     -898.441842     -898.446968     -898.516081  0.045720 -5.914516  0.042676
   scf:    5     -898.449816     -898.449029     -898.518329  0.024501 -5.902874  0.049579
   scf:    6     -898.449175     -898.449243     -898.518558  0.009758 -5.907037  0.037029
   scf:    7     -898.449443     -898.449370     -898.518684  0.001726 -5.883627  0.003595
   scf:    8     -898.449371     -898.449371     -898.518686  0.000771 -5.884791  0.001874
   scf:    9     -898.449370     -898.449371     -898.518686  0.000485 -5.883769  0.000992
   scf:   10     -898.449371     -898.449371     -898.518686  0.000040 -5.883731  0.000752

SCF Convergence by DM+H criterion
max |DM_out - DM_in|         :     0.0000396708
max |H_out - H_in|      (eV) :     0.0007519193
SCF cycle converged after 10 iterations

Using DM_out to compute the final energy and forces
No. of atoms with KB's overlaping orbs in proc 0. Max # of overlaps:       4      26

siesta: E_KS(eV) =             -898.4494

siesta: Atomic forces (eV/Ang):
----------------------------------------
   Tot   -0.000507    0.000314   -0.000506
----------------------------------------
   Max    1.843089
   Res    0.816687    sqrt( Sum f_i^2 / 3N )
----------------------------------------
   Max    1.843089    constrained

Stress tensor Voigt[x,y,z,yz,xz,xy] (kbar):      -16.35       -0.32        0.11        0.14        0.54        0.01
(Free)E + p*V (eV/cell)     -895.0722
Target enthalpy (eV/cell)     -898.5187

siesta: Stress tensor (static) (eV/Ang**3):
        -0.001295   -0.000050    0.000263
        -0.000050    0.000018    0.000057
         0.000263    0.000057    0.000088

siesta: Pressure (static):          0.63516155  kBar

siesta: Stress tensor (total) (eV/Ang**3):
        -0.010207    0.000004    0.000337
         0.000004   -0.000199    0.000090
         0.000337    0.000090    0.000066

siesta: Pressure (total):          5.52192464  kBar

siesta: Temp_ion =   12233.276 K

                     ====================================
                        Begin MD step =      9
                     ====================================

outcell: Unit cell vectors (Ang):
       10.000004    0.000000    0.000000
        0.000000   10.000004    0.000000
        0.000000    0.000000   10.000004

outcell: Cell vector modules (Ang)   :   10.000004   10.000004   10.000004
outcell: Cell angles (23,13,12) (deg):     90.0000     90.0000     90.0000
outcell: Cell volume (Ang**3)        :   1000.0012
<dSpData1D:S at geom step 9
  <sparsity:sparsity for geom step 9
    nrows_g=26 nrows=26 sparsity=1.0000 nnzs=676, refcount: 7>
  <dData1D:(new from dSpData1D) n=676, refcount: 1>
refcount: 1>
new_DM -- step:     9
Re-using DM from previous geometries...
Number of DMs in history: 1
 DM extrapolation coefficients: 
1   1.00000
New DM after history re-use:
<dSpData2D:SpM extrapolated using coords
  <sparsity:sparsity for geom step 9
    nrows_g=26 nrows=26 sparsity=1.0000 nnzs=676, refcount: 9>
  <dData2D:(temp array for extrapolation) n=676 m=1, refcount: 1>
refcount: 1>
Note: For starting DM, Qtot, Tr[D*S] =         14.00000000         14.06405914
No. of atoms with KB's overlaping orbs in proc 0. Max # of overlaps:       4      26

InitMesh: MESH = 90 x 90 x 90 = 729000
InitMesh: Mesh cutoff (required, used) =   200.000   223.865 Ry
New grid distribution [1]: sub = 2

        iscf     Eharris(eV)        E_KS(eV)     FreeEng(eV)     dDmax    Ef(eV) dHmax(eV)
   scf:    1     -898.682715     -898.400739     -898.470047  0.025025 -6.462756  0.909204
   scf:    2     -897.944615     -898.263954     -898.332523  0.134682 -5.866311  1.476769
   scf:    3     -898.467930     -898.404970     -898.474245  0.093145 -6.239388  0.608782
   scf:    4     -898.393735     -898.406658     -898.475507  0.083137 -5.988463  0.100274
   scf:    5     -898.413196     -898.410761     -898.479974  0.031816 -5.969593  0.067929
   scf:    6     -898.411943     -898.412010     -898.481324  0.028231 -5.972542  0.039798
   scf:    7     -898.412141     -898.412118     -898.481429  0.005205 -5.943858  0.014940
   scf:    8     -898.412151     -898.412154     -898.481468  0.004793 -5.947102  0.002058
   scf:    9     -898.412152     -898.412153     -898.481468  0.000600 -5.945530  0.001348
   scf:   10     -898.412153     -898.412154     -898.481468  0.000447 -5.946010  0.000553
   scf:   11     -898.412154     -898.412154     -898.481468  0.000087 -5.946008  0.000466

SCF Convergence by DM+H criterion
max |DM_out - DM_in|         :     0.0000870061
max |H_out - H_in|      (eV) :     0.0004661268
SCF cycle converged after 11 iterations

Using DM_out to compute the final energy and forces
No. of atoms with KB's overlaping orbs in proc 0. Max # of overlaps:       4      26

siesta: E_KS(eV) =             -898.4122

siesta: Atomic forces (eV/Ang):
----------------------------------------
   Tot   -0.003706    0.000139   -0.001146
----------------------------------------
   Max    2.100805
   Res    1.105995    sqrt( Sum f_i^2 / 3N )
----------------------------------------
   Max    2.100805    constrained

Stress tensor Voigt[x,y,z,yz,xz,xy] (kbar):      -19.72       -0.54       -0.38       -0.17       -0.82       -0.91
(Free)E + p*V (eV/cell)     -894.1862
Target enthalpy (eV/cell)     -898.4815

siesta: Stress tensor (static) (eV/Ang**3):
        -0.003050   -0.000573   -0.000558
        -0.000573   -0.000120   -0.000150
        -0.000558   -0.000150   -0.000229

siesta: Pressure (static):          1.81478047  kBar

siesta: Stress tensor (total) (eV/Ang**3):
        -0.012309   -0.000570   -0.000510
        -0.000570   -0.000337   -0.000109
        -0.000510   -0.000109   -0.000240

siesta: Pressure (total):          6.88173269  kBar

siesta: Temp_ion =   12128.420 K

                     ====================================
                        Begin MD step =     10
                     ====================================

outcell: Unit cell vectors (Ang):
       10.000004    0.000000    0.000000
        0.000000   10.000004    0.000000
        0.000000    0.000000   10.000004

outcell: Cell vector modules (Ang)   :   10.000004   10.000004   10.000004
outcell: Cell angles (23,13,12) (deg):     90.0000     90.0000     90.0000
outcell: Cell volume (Ang**3)        :   1000.0012
<dSpData1D:S at geom step 10
  <sparsity:sparsity for geom step 10
    nrows_g=26 nrows=26 sparsity=1.0000 nnzs=676, refcount: 7>
  <dData1D:(new from dSpData1D) n=676, refcount: 1>
refcount: 1>
new_DM -- step:    10
Re-using DM from previous geometries...
Number of DMs in history: 1
 DM extrapolation coefficients: 
1   1.00000
New DM after history re-use:
<dSpData2D:SpM extrapolated using coords
  <sparsity:sparsity for geom step 10
    nrows_g=26 nrows=26 sparsity=1.0000 nnzs=676, refcount: 9>
  <dData2D:(temp array for extrapolation) n=676 m=1, refcount: 1>
refcount: 1>
Note: For starting DM, Qtot, Tr[D*S] =         14.00000000         14.03524632
No. of atoms with KB's overlaping orbs in proc 0. Max # of overlaps:       4      26

InitMesh: MESH = 90 x 90 x 90 = 729000
InitMesh: Mesh cutoff (required, used) =   200.000   223.865 Ry
New grid distribution [1]: sub = 2

        iscf     Eharris(eV)        E_KS(eV)     FreeEng(eV)     dDmax    Ef(eV) dHmax(eV)
   scf:    1     -898.370868     -898.198880     -898.268177  0.014734 -6.254477  0.589253
   scf:    2     -897.658158     -898.034367     -898.102103  0.120145 -5.974588  1.460215
   scf:    3     -898.252154     -898.206557     -898.275852  0.097677 -6.187144  0.284051
   scf:    4     -898.188334     -898.202316     -898.271089  0.071834 -6.074724  0.070522
   scf:    5     -898.207708     -898.205294     -898.274336  0.017459 -6.055829  0.058460
   scf:    6     -898.208309     -898.208209     -898.277523  0.039746 -6.045691  0.019950
   scf:    7     -898.207942     -898.208128     -898.277427  0.007277 -6.025200  0.010235
   scf:    8     -898.208237     -898.208246     -898.277560  0.008456 -6.029151  0.001121
   scf:    9     -898.208246     -898.208246     -898.277560  0.000333 -6.028544  0.001302
   scf:   10     -898.208246     -898.208246     -898.277560  0.000270 -6.028628  0.000806

SCF Convergence by DM+H criterion
max |DM_out - DM_in|         :     0.0002696631
max |H_out - H_in|      (eV) :     0.0008060717
SCF cycle converged after 10 iterations

Using DM_out to compute the final energy and forces
No. of atoms with KB's overlaping orbs in proc 0. Max # of overlaps:       4      26

siesta: E_KS(eV) =             -898.2082

siesta: Atomic forces (eV/Ang):
----------------------------------------
   Tot    0.000888   -0.000545   -0.000985
----------------------------------------
   Max    4.380916
   Res    2.100284    sqrt( Sum f_i^2 / 3N )
----------------------------------------
   Max    4.380916    constrained

Stress tensor Voigt[x,y,z,yz,xz,xy] (kbar):      -20.94       -0.84       -1.06       -0.62       -1.99       -1.66
(Free)E + p*V (eV/cell)     -893.5267
Target enthalpy (eV/cell)     -898.2776

siesta: Stress tensor (static) (eV/Ang**3):
        -0.003901   -0.001025   -0.001317
        -0.001025   -0.000299   -0.000426
        -0.001317   -0.000426   -0.000646

siesta: Pressure (static):          2.58824852  kBar

siesta: Stress tensor (total) (eV/Ang**3):
        -0.013068   -0.001033   -0.001240
        -0.001033   -0.000523   -0.000387
        -0.001240   -0.000387   -0.000662

siesta: Pressure (total):          7.61176987  kBar

siesta: Temp_ion =   11723.436 K

                     ====================================
                        Begin MD step =     11
                     ====================================

outcell: Unit cell vectors (Ang):
       10.000004    0.000000    0.000000
        0.000000   10.000004    0.000000
        0.000000    0.000000   10.000004

outcell: Cell vector modules (Ang)   :   10.000004   10.000004   10.000004
outcell: Cell angles (23,13,12) (deg):     90.0000     90.0000     90.0000
outcell: Cell volume (Ang**3)        :   1000.0012
<dSpData1D:S at geom step 11
  <sparsity:sparsity for geom step 11
    nrows_g=26 nrows=26 sparsity=1.0000 nnzs=676, refcount: 7>
  <dData1D:(new from dSpData1D) n=676, refcount: 1>
refcount: 1>
new_DM -- step:    11
Re-using DM from previous geometries...
Number of DMs in history: 1
 DM extrapolation coefficients: 
1   1.00000
New DM after history re-use:
<dSpData2D:SpM extrapolated using coords
  <sparsity:sparsity for geom step 11
    nrows_g=26 nrows=26 sparsity=1.0000 nnzs=676, refcount: 9>
  <dData2D:(temp array for extrapolation) n=676 m=1, refcount: 1>
refcount: 1>
No. of atoms with KB's overlaping orbs in proc 0. Max # of overlaps:       4      26

InitMesh: MESH = 90 x 90 x 90 = 729000
InitMesh: Mesh cutoff (required, used) =   200.000   223.865 Ry
New grid distribution [1]: sub = 2

        iscf     Eharris(eV)        E_KS(eV)     FreeEng(eV)     dDmax    Ef(eV) dHmax(eV)
   scf:    1     -898.362883     -898.363711     -898.432940  0.037933 -5.963756  0.445829
   scf:    2     -897.724755     -898.166249     -898.228129  0.237750 -6.150463  1.325082
   scf:    3     -898.406998     -898.368980     -898.438248  0.199430 -6.003594  0.173408
   scf:    4     -898.337599     -898.361022     -898.429465  0.087053 -6.066667  0.140964
   scf:    5     -898.372968     -898.368757     -898.437925  0.041576 -6.055414  0.133759
   scf:    6     -898.369744     -898.370173     -898.439488  0.029112 -6.142325  0.015634
   scf:    7     -898.369341     -898.369982     -898.439259  0.014694 -6.134206  0.018503
   scf:    8     -898.370210     -898.370231     -898.439544  0.011651 -6.141747  0.000958
   scf:    9     -898.370232     -898.370232     -898.439544  0.000975 -6.141465  0.001505
   scf:   10     -898.370232     -898.370233     -898.439545  0.000630 -6.142045  0.000707
   scf:   11     -898.370233     -898.370233     -898.439545  0.000008 -6.142077  0.000693

SCF Convergence by DM+H criterion
max |DM_out - DM_in|         :     0.0000083499
max |H_out - H_in|      (eV) :     0.0006925787
SCF cycle converged after 11 iterations

Using DM_out to compute the final energy and forces
No. of atoms with KB's overlaping orbs in proc 0. Max # of overlaps:       4      26

siesta: E_KS(eV) =             -898.3702

siesta: Atomic forces (eV/Ang):
----------------------------------------
   Tot   -0.002139   -0.000993    0.000247
----------------------------------------
   Max    2.615387
   Res    1.294780    sqrt( Sum f_i^2 / 3N )
----------------------------------------
   Max    2.615387    constrained

Stress tensor Voigt[x,y,z,yz,xz,xy] (kbar):      -17.94       -0.82       -1.02       -0.59       -1.33       -1.14
(Free)E + p*V (eV/cell)     -894.3243
Target enthalpy (eV/cell)     -898.4395

siesta: Stress tensor (static) (eV/Ang**3):
        -0.002459   -0.000697   -0.000935
        -0.000697   -0.000251   -0.000361
        -0.000935   -0.000361   -0.000543

siesta: Pressure (static):          1.73756100  kBar

siesta: Stress tensor (total) (eV/Ang**3):
        -0.011198   -0.000712   -0.000830
        -0.000711   -0.000513   -0.000371
        -0.000830   -0.000371   -0.000635

siesta: Pressure (total):          6.59334016  kBar

siesta: Temp_ion =   12037.624 K

                     ====================================
                        Begin MD step =     12
                     ====================================

outcell: Unit cell vectors (Ang):
       10.000004    0.000000    0.000000
        0.000000   10.000004    0.000000
        0.000000    0.000000   10.000004

outcell: Cell vector modules (Ang)   :   10.000004   10.000004   10.000004
outcell: Cell angles (23,13,12) (deg):     90.0000     90.0000     90.0000
outcell: Cell volume (Ang**3)        :   1000.0012
<dSpData1D:S at geom step 12
  <sparsity:sparsity for geom step 12
    nrows_g=26 nrows=26 sparsity=1.0000 nnzs=676, refcount: 7>
  <dData1D:(new from dSpData1D) n=676, refcount: 1>
refcount: 1>
new_DM -- step:    12
Re-using DM from previous geometries...
Number of DMs in history: 1
 DM extrapolation coefficients: 
1   1.00000
New DM after history re-use:
<dSpData2D:SpM extrapolated using coords
  <sparsity:sparsity for geom step 12
    nrows_g=26 nrows=26 sparsity=1.0000 nnzs=676, refcount: 9>
  <dData2D:(temp array for extrapolation) n=676 m=1, refcount: 1>
refcount: 1>
Note: For starting DM, Qtot, Tr[D*S] =         14.00000000         13.96420651
No. of atoms with KB's overlaping orbs in proc 0. Max # of overlaps:       4      26

InitMesh: MESH = 90 x 90 x 90 = 729000
InitMesh: Mesh cutoff (required, used) =   200.000   223.865 Ry
New grid distribution [1]: sub = 2

        iscf     Eharris(eV)        E_KS(eV)     FreeEng(eV)     dDmax    Ef(eV) dHmax(eV)
   scf:    1     -898.210875     -898.451807     -898.520525  0.064822 -5.824010  0.775327
   scf:    2     -897.040457     -898.018059     -898.050955  0.552101 -6.403948  1.176528
   scf:    3     -898.615207     -898.414145     -898.479862  0.330300 -6.045805  0.514222
   scf:    4     -898.479141     -898.457358     -898.526386  0.113454 -6.065398  0.414307
   scf:    5     -897.787868     -898.258649     -898.307904  0.404405 -6.314295  0.428227
   scf:    6     -898.417578     -898.343680     -898.401427  0.082372 -6.274909  0.326544
   scf:    7     -898.358678     -898.453524     -898.522088  0.348988 -6.288445  0.096050
   scf:    8     -898.467137     -898.461644     -898.530808  0.039543 -6.288406  0.049043
   scf:    9     -898.452067     -898.457340     -898.526194  0.024010 -6.289814  0.077399
   scf:   10     -898.466753     -898.464179     -898.533488  0.050398 -6.300842  0.016848
   scf:   11     -898.464583     -898.464561     -898.533865  0.014578 -6.300811  0.001413
   scf:   12     -898.464535     -898.464552     -898.533861  0.002215 -6.301226  0.002195
   scf:   13     -898.464566     -898.464562     -898.533867  0.001858 -6.301182  0.001116
   scf:   14     -898.464561     -898.464562     -898.533867  0.000147 -6.301003  0.000934

SCF Convergence by DM+H criterion
max |DM_out - DM_in|         :     0.0001470784
max |H_out - H_in|      (eV) :     0.0009339476
SCF cycle converged after 14 iterations

Using DM_out to compute the final energy and forces
No. of atoms with KB's overlaping orbs in proc 0. Max # of overlaps:       4      26

siesta: E_KS(eV) =             -898.4646

siesta: Atomic forces (eV/Ang):
----------------------------------------
   Tot   -0.000622   -0.000741   -0.000809
----------------------------------------
   Max    0.411542
   Res    0.167880    sqrt( Sum f_i^2 / 3N )
----------------------------------------
   Max    0.411542    constrained

Stress tensor Voigt[x,y,z,yz,xz,xy] (kbar):      -15.03       -0.54       -0.36       -0.17        0.04       -0.10
(Free)E + p*V (eV/cell)     -895.2194
Target enthalpy (eV/cell)     -898.5339

siesta: Stress tensor (static) (eV/Ang**3):
        -0.000698    0.000089    0.000103
         0.000089    0.000016    0.000041
         0.000103    0.000041    0.000075

siesta: Pressure (static):          0.32440002  kBar

siesta: Stress tensor (total) (eV/Ang**3):
        -0.009383   -0.000061    0.000027
        -0.000061   -0.000339   -0.000104
         0.000027   -0.000104   -0.000222

siesta: Pressure (total):          5.31031396  kBar

siesta: Temp_ion =   12246.276 K

                     ====================================
                        Begin MD step =     13
                     ====================================

outcell: Unit cell vectors (Ang):
       10.000004    0.000000    0.000000
        0.000000   10.000004    0.000000
        0.000000    0.000000   10.000004

outcell: Cell vector modules (Ang)   :   10.000004   10.000004   10.000004
outcell: Cell angles (23,13,12) (deg):     90.0000     90.0000     90.0000
outcell: Cell volume (Ang**3)        :   1000.0012
<dSpData1D:S at geom step 13
  <sparsity:sparsity for geom step 13
    nrows_g=26 nrows=26 sparsity=1.0000 nnzs=676, refcount: 7>
  <dData1D:(new from dSpData1D) n=676, refcount: 1>
refcount: 1>
new_DM -- step:    13
Re-using DM from previous geometries...
Number of DMs in history: 1
 DM extrapolation coefficients: 
1   1.00000
New DM after history re-use:
<dSpData2D:SpM extrapolated using coords
  <sparsity:sparsity for geom step 13
    nrows_g=26 nrows=26 sparsity=1.0000 nnzs=676, refcount: 9>
  <dData2D:(temp array for extrapolation) n=676 m=1, refcount: 1>
refcount: 1>
Note: For starting DM, Qtot, Tr[D*S] =         14.00000000         13.95607286
No. of atoms with KB's overlaping orbs in proc 0. Max # of overlaps:       4      26

InitMesh: MESH = 90 x 90 x 90 = 729000
InitMesh: Mesh cutoff (required, used) =   200.000   223.865 Ry
New grid distribution [1]: sub = 2

        iscf     Eharris(eV)        E_KS(eV)     FreeEng(eV)     dDmax    Ef(eV) dHmax(eV)
   scf:    1     -897.642028     -898.175511     -898.241938  0.133057 -5.950220  0.907432
   scf:    2     -896.116608     -897.587682     -897.592590  0.744505 -6.726676  1.076302
   scf:    3     -898.160667     -897.903741     -897.945929  0.179671 -6.313109  0.537045
   scf:    4     -897.530847     -897.726995     -897.749125  0.112940 -6.392256  0.687856
   scf:    5     -896.547177     -897.910333     -897.946792  0.991611 -6.503911  0.539420
   scf:    6     -897.936711     -897.923630     -897.961667  0.010156 -6.471520  0.526292
   scf:    7     -897.150650     -898.019419     -898.072512  0.776110 -6.482791  0.421251
   scf:    8     -898.090720     -898.055997     -898.112438  0.034287 -6.481872  0.379153
   scf:    9     -897.604909     -897.850772     -897.886761  0.162062 -6.494570  0.582986
   scf:   10     -898.285572     -898.211417     -898.280559  0.423042 -6.485324  0.063784
   scf:   11     -898.206720     -898.209177     -898.278185  0.011599 -6.485704  0.077765
   scf:   12     -898.217546     -898.214094     -898.283367  0.030120 -6.485379  0.041468
   scf:   13     -898.205111     -898.210123     -898.279186  0.025318 -6.481071  0.072205
   scf:   14     -898.214818     -898.212641     -898.281846  0.014414 -6.490525  0.054605
   scf:   15     -898.217305     -898.215722     -898.285033  0.030504 -6.490575  0.017672
   scf:   16     -898.216206     -898.216147     -898.285415  0.015029 -6.492830  0.010794
   scf:   17     -898.216145     -898.216148     -898.285418  0.001543 -6.493005  0.011526
   scf:   18     -898.216150     -898.216149     -898.285419  0.000165 -6.493446  0.010970
   scf:   19     -898.216150     -898.216151     -898.285420  0.001273 -6.499427  0.004020
   scf:   20     -898.216152     -898.216151     -898.285421  0.000099 -6.499637  0.003392
   scf:   21     -898.216150     -898.216152     -898.285423  0.000909 -6.500052  0.001047
   scf:   22     -898.216151     -898.216152     -898.285423  0.000029 -6.500059  0.000991

SCF Convergence by DM+H criterion
max |DM_out - DM_in|         :     0.0000291950
max |H_out - H_in|      (eV) :     0.0009908527
SCF cycle converged after 22 iterations

Using DM_out to compute the final energy and forces
No. of atoms with KB's overlaping orbs in proc 0. Max # of overlaps:       4      26

siesta: E_KS(eV) =             -898.2162

siesta: Atomic forces (eV/Ang):
----------------------------------------
   Tot   -0.000055   -0.000147   -0.000530
----------------------------------------
   Max    2.108590
   Res    0.972209    sqrt( Sum f_i^2 / 3N )
----------------------------------------
   Max    2.108590    constrained

Stress tensor Voigt[x,y,z,yz,xz,xy] (kbar):      -14.26       -0.25        0.40        0.31        1.11        0.78
(Free)E + p*V (eV/cell)     -895.3490
Target enthalpy (eV/cell)     -898.2854

siesta: Stress tensor (static) (eV/Ang**3):
        -0.000213    0.000725    0.000887
         0.000725    0.000249    0.000410
         0.000887    0.000410    0.000652

siesta: Pressure (static):         -0.36761137  kBar

siesta: Stress tensor (total) (eV/Ang**3):
        -0.008899    0.000487    0.000691
         0.000487   -0.000157    0.000193
         0.000691    0.000193    0.000247

siesta: Pressure (total):          4.70472527  kBar

siesta: Temp_ion =   11647.846 K

                     ====================================
                        Begin MD step =     14
                     ====================================

outcell: Unit cell vectors (Ang):
       10.000004    0.000000    0.000000
        0.000000   10.000004    0.000000
        0.000000    0.000000   10.000004

outcell: Cell vector modules (Ang)   :   10.000004   10.000004   10.000004
outcell: Cell angles (23,13,12) (deg):     90.0000     90.0000     90.0000
outcell: Cell volume (Ang**3)        :   1000.0012
<dSpData1D:S at geom step 14
  <sparsity:sparsity for geom step 14
    nrows_g=26 nrows=26 sparsity=1.0000 nnzs=676, refcount: 7>
  <dData1D:(new from dSpData1D) n=676, refcount: 1>
refcount: 1>
new_DM -- step:    14
Re-using DM from previous geometries...
Number of DMs in history: 1
 DM extrapolation coefficients: 
1   1.00000
New DM after history re-use:
<dSpData2D:SpM extrapolated using coords
  <sparsity:sparsity for geom step 14
    nrows_g=26 nrows=26 sparsity=1.0000 nnzs=676, refcount: 9>
  <dData2D:(temp array for extrapolation) n=676 m=1, refcount: 1>
refcount: 1>
Note: For starting DM, Qtot, Tr[D*S] =         14.00000000         13.96921564
No. of atoms with KB's overlaping orbs in proc 0. Max # of overlaps:       4      26

InitMesh: MESH = 90 x 90 x 90 = 729000
InitMesh: Mesh cutoff (required, used) =   200.000   223.865 Ry
New grid distribution [1]: sub = 2

        iscf     Eharris(eV)        E_KS(eV)     FreeEng(eV)     dDmax    Ef(eV) dHmax(eV)
   scf:    1     -896.999136     -897.751059     -897.812170  0.214602 -6.316404  0.783456
   scf:    2     -895.377054     -897.141859     -897.142318  0.832990 -6.984029  1.355967
   scf:    3     -897.617852     -897.401461     -897.432979  0.116385 -6.576308  0.637592
   scf:    4     -897.111438     -897.261452     -897.275243  0.077832 -6.648233  0.754798
   scf:    5     -898.006294     -897.806415     -897.874464  0.466272 -6.659146  0.155794
   scf:    6     -897.461112     -897.743226     -897.801176  0.369068 -6.669044  0.291771
   scf:    7     -897.852740     -897.807369     -897.872574  0.108337 -6.653914  0.159566
   scf:    8     -896.052548     -897.313885     -897.334115  0.697869 -6.689471  0.707203
   scf:    9     -897.405297     -897.360107     -897.386230  0.025700 -6.684536  0.668764
   scf:   10     -897.103832     -897.235410     -897.244099  0.066247 -6.692856  0.783836
   scf:   11     -896.284922     -897.575857     -897.614218  1.012293 -6.664164  0.498429
   scf:   12     -897.303914     -897.446193     -897.466625  0.090616 -6.658767  0.625034
   scf:   13     -897.964930     -897.784556     -897.847169  0.316664 -6.667347  0.217657
   scf:   14     -897.052550     -897.638970     -897.693778  0.525432 -6.677863  0.418336
   scf:   15     -897.269883     -897.737549     -897.794871  0.594296 -6.669412  0.301759
   scf:   16     -897.829887     -897.788329     -897.851338  0.076254 -6.670616  0.208801
   scf:   17     -897.838809     -897.834590     -897.903581  0.161699 -6.673598  0.017701
   scf:   18     -897.822088     -897.830026     -897.898113  0.045740 -6.673376  0.068432
   scf:   19     -897.835942     -897.834541     -897.903505  0.044039 -6.673094  0.020911
   scf:   20     -897.834176     -897.834603     -897.903764  0.017264 -6.672942  0.014188
   scf:   21     -897.829454     -897.833195     -897.901817  0.038075 -6.675296  0.040370
   scf:   22     -897.834367     -897.834683     -897.903801  0.033401 -6.677005  0.009343
   scf:   23     -897.834640     -897.834689     -897.903741  0.005601 -6.676597  0.008928
   scf:   24     -897.834625     -897.834685     -897.903802  0.005812 -6.677896  0.007788
   scf:   25     -897.834690     -897.834688     -897.903803  0.000670 -6.680650  0.001753
   scf:   26     -897.834687     -897.834687     -897.903803  0.000068 -6.680829  0.001578
   scf:   27     -897.834686     -897.834687     -897.903804  0.000325 -6.681903  0.000605
   scf:   28     -897.834687     -897.834687     -897.903804  0.000169 -6.682021  0.000502

SCF Convergence by DM+H criterion
max |DM_out - DM_in|         :     0.0001694790
max |H_out - H_in|      (eV) :     0.0005018878
SCF cycle converged after 28 iterations

Using DM_out to compute the final energy and forces
No. of atoms with KB's overlaping orbs in proc 0. Max # of overlaps:       4      26

siesta: E_KS(eV) =             -897.8347

siesta: Atomic forces (eV/Ang):
----------------------------------------
   Tot   -0.002176    0.000543    0.000516
----------------------------------------
   Max    2.890641
   Res    1.315630    sqrt( Sum f_i^2 / 3N )
----------------------------------------
   Max    2.890641    constrained

Stress tensor Voigt[x,y,z,yz,xz,xy] (kbar):      -15.03       -0.08        1.04        0.71        1.80        1.41
(Free)E + p*V (eV/cell)     -894.9792
Target enthalpy (eV/cell)     -897.9038

siesta: Stress tensor (static) (eV/Ang**3):
        -0.001006    0.001061    0.001225
         0.001061    0.000318    0.000590
         0.001225    0.000590    0.000948

siesta: Pressure (static):         -0.13873859  kBar

siesta: Stress tensor (total) (eV/Ang**3):
        -0.009378    0.000880    0.001126
         0.000880   -0.000047    0.000441
         0.001126    0.000441    0.000651

siesta: Pressure (total):          4.68573177  kBar

siesta: Temp_ion =   10682.695 K

                     ====================================
                        Begin MD step =     15
                     ====================================

outcell: Unit cell vectors (Ang):
       10.000004    0.000000    0.000000
        0.000000   10.000004    0.000000
        0.000000    0.000000   10.000004

outcell: Cell vector modules (Ang)   :   10.000004   10.000004   10.000004
outcell: Cell angles (23,13,12) (deg):     90.0000     90.0000     90.0000
outcell: Cell volume (Ang**3)        :   1000.0012
<dSpData1D:S at geom step 15
  <sparsity:sparsity for geom step 15
    nrows_g=26 nrows=26 sparsity=1.0000 nnzs=676, refcount: 7>
  <dData1D:(new from dSpData1D) n=676, refcount: 1>
refcount: 1>
new_DM -- step:    15
Re-using DM from previous geometries...
Number of DMs in history: 1
 DM extrapolation coefficients: 
1   1.00000
New DM after history re-use:
<dSpData2D:SpM extrapolated using coords
  <sparsity:sparsity for geom step 15
    nrows_g=26 nrows=26 sparsity=1.0000 nnzs=676, refcount: 9>
  <dData2D:(temp array for extrapolation) n=676 m=1, refcount: 1>
refcount: 1>
No. of atoms with KB's overlaping orbs in proc 0. Max # of overlaps:       4      26

InitMesh: MESH = 90 x 90 x 90 = 729000
InitMesh: Mesh cutoff (required, used) =   200.000   223.865 Ry
New grid distribution [1]: sub = 2

        iscf     Eharris(eV)        E_KS(eV)     FreeEng(eV)     dDmax    Ef(eV) dHmax(eV)
   scf:    1     -896.400871     -897.312699     -897.361300  0.257261 -6.715636  0.401173
   scf:    2     -894.074075     -896.510130     -896.510167  0.806010 -6.768481  2.024582
   scf:    3     -897.719749     -897.274640     -897.335870  0.317501 -6.728112  0.588519
   scf:    4     -897.472276     -897.390279     -897.458442  0.118350 -6.726253  0.375798
   scf:    5     -896.986567     -897.219357     -897.276347  0.163289 -6.747904  0.579467
   scf:    6     -897.497405     -897.385300     -897.452976  0.146039 -6.768844  0.210625
   scf:    7     -897.423631     -897.442575     -897.510032  0.190664 -6.770671  0.042357
   scf:    8     -897.439206     -897.442956     -897.511712  0.045531 -6.771574  0.026489
   scf:    9     -897.442483     -897.443754     -897.511671  0.027633 -6.771088  0.020763
   scf:   10     -897.444060     -897.443961     -897.512094  0.007741 -6.770099  0.013410
   scf:   11     -897.443208     -897.443774     -897.512275  0.012992 -6.769888  0.012649
   scf:   12     -897.443973     -897.443885     -897.512317  0.003269 -6.769215  0.004099
   scf:   13     -897.443959     -897.443924     -897.512321  0.001295 -6.769106  0.002963
   scf:   14     -897.443930     -897.443929     -897.512324  0.000868 -6.769609  0.001421
   scf:   15     -897.443923     -897.443926     -897.512325  0.000111 -6.769651  0.001416
   scf:   16     -897.443918     -897.443922     -897.512325  0.000332 -6.769936  0.000419
   scf:   17     -897.443922     -897.443922     -897.512325  0.000019 -6.769942  0.000402

SCF Convergence by DM+H criterion
max |DM_out - DM_in|         :     0.0000188519
max |H_out - H_in|      (eV) :     0.0004015833
SCF cycle converged after 17 iterations

Using DM_out to compute the final energy and forces
No. of atoms with KB's overlaping orbs in proc 0. Max # of overlaps:       4      26

siesta: E_KS(eV) =             -897.4439

siesta: Atomic forces (eV/Ang):
----------------------------------------
   Tot   -0.000241    0.001598    0.001431
----------------------------------------
   Max    3.177993
   Res    1.429036    sqrt( Sum f_i^2 / 3N )
----------------------------------------
   Max    3.177993    constrained

Stress tensor Voigt[x,y,z,yz,xz,xy] (kbar):      -17.13       -0.21        1.25        0.82        1.87        1.58
(Free)E + p*V (eV/cell)     -894.1645
Target enthalpy (eV/cell)     -897.5123

siesta: Stress tensor (static) (eV/Ang**3):
        -0.002839    0.001107    0.001151
         0.001107    0.000173    0.000551
         0.001151    0.000551    0.000908

siesta: Pressure (static):          0.93906228  kBar

siesta: Stress tensor (total) (eV/Ang**3):
        -0.010693    0.000987    0.001165
         0.000987   -0.000129    0.000510
         0.001165    0.000510    0.000779

siesta: Pressure (total):          5.36377267  kBar

siesta: Temp_ion =    9665.523 K

                     ====================================
                        Begin MD step =     16
                     ====================================

outcell: Unit cell vectors (Ang):
       10.000004    0.000000    0.000000
        0.000000   10.000004    0.000000
        0.000000    0.000000   10.000004

outcell: Cell vector modules (Ang)   :   10.000004   10.000004   10.000004
outcell: Cell angles (23,13,12) (deg):     90.0000     90.0000     90.0000
outcell: Cell volume (Ang**3)        :   1000.0012
<dSpData1D:S at geom step 16
  <sparsity:sparsity for geom step 16
    nrows_g=26 nrows=26 sparsity=1.0000 nnzs=676, refcount: 7>
  <dData1D:(new from dSpData1D) n=676, refcount: 1>
refcount: 1>
new_DM -- step:    16
Re-using DM from previous geometries...
Number of DMs in history: 1
 DM extrapolation coefficients: 
1   1.00000
New DM after history re-use:
<dSpData2D:SpM extrapolated using coords
[...]
   scf:   82     -884.678240     -885.825390     -885.825390  0.124529 -4.920013 11.590993
   scf:   83     -891.133105     -888.572418     -888.572418  0.262117 -4.806549  8.225878
   scf:   84     -846.625621     -884.277791     -884.277818  1.829891 -3.922459 13.336683
   scf:   85     -894.087780     -889.753663     -889.756428  0.476156 -4.534304  9.358757
   scf:   86     -880.924379     -885.675799     -885.676295  0.334895 -4.418167 12.009162
   scf:   87     -855.057781     -885.908377     -885.908377  1.903540 -4.756011 11.477693
   scf:   88     -890.062353     -888.036137     -888.036137  0.213898 -4.754085  8.757128
   scf:   89     -887.560301     -893.956166     -893.959013  1.126072 -4.585377  4.851027
   scf:   90     -870.770991     -887.968837     -887.968837  1.129075 -4.829335  8.792471
   scf:   91     -890.810242     -889.425502     -889.425503  0.107296 -4.695758  7.476645
   scf:   92     -891.579102     -890.532494     -890.532496  0.081140 -4.695697  6.476066
   scf:   93     -882.261926     -886.627528     -886.627528  0.300673 -4.815146 10.526202
   scf:   94     -887.849202     -887.242025     -887.242025  0.061116 -4.879810  9.810053
   scf:   95     -849.099903     -885.327840     -885.330517  1.873250 -4.803592 11.327026
   scf:   96     -860.452812     -887.934831     -887.934831  1.836490 -4.757124  8.956583
   scf:   97     -887.738953     -887.837156     -887.837156  0.016563 -4.773733  8.975146
   scf:   98     -891.068967     -889.500139     -889.500140  0.126390 -4.769748  7.386431
   scf:   99     -888.788784     -889.146990     -889.146990  0.025673 -4.717059  7.712410
   scf:  100     -888.252655     -888.703371     -888.703371  0.031468 -4.722215  8.161156
   scf:  101     -888.622653     -888.663041     -888.663041  0.003064 -4.719720  8.197975
   scf:  102     -846.607021     -884.157729     -884.157729  1.839319 -4.453345 12.970541
   scf:  103     -895.565368     -890.934666     -890.935969  0.702558 -4.598317  7.990564
   scf:  104     -866.750391     -888.346954     -888.346955  1.452141 -4.830776  8.679131
   scf:  105     -854.315728     -886.309267     -886.309271  1.745451 -4.478881 11.497872
   scf:  106     -887.302093     -886.809164     -886.809173  0.030490 -4.552484 11.075541
   scf:  107     -895.450317     -891.655877     -891.657302  0.322791 -4.916873  7.014394
   scf:  108     -876.414839     -885.037131     -885.037163  0.542809 -4.333843 11.791748
   scf:  109     -896.466628     -891.698812     -891.708722  0.463023 -4.659462  7.038294
   scf:  110     -881.626282     -887.157926     -887.158385  0.312562 -4.495329 10.583461
   scf:  111     -860.763376     -887.682568     -887.682568  1.732412 -5.337794  9.827027
   scf:  112     -892.178675     -890.038507     -890.038558  0.146539 -4.760325  6.970287
   scf:  113     -892.086819     -891.092699     -891.093140  0.095920 -4.754073  6.003665
   scf:  114     -892.321341     -891.722262     -891.722404  0.052944 -4.614250  5.796887
   scf:  115     -894.946830     -893.523861     -893.524515  0.201993 -4.603764  4.268329
   scf:  116     -892.010163     -892.805648     -892.805759  0.093527 -4.847629  4.745779
   scf:  117     -892.392105     -894.524741     -894.591672  0.628057 -4.773424  2.694670
   scf:  118     -879.965417     -890.461262     -890.462885  0.841571 -4.993987  6.919910
   scf:  119     -866.715477     -888.935537     -888.961897  1.459944 -5.113790  8.617901
   scf:  120     -874.543549     -891.032904     -891.033139  1.419874 -4.902626  6.333615
   scf:  121     -894.607526     -892.981702     -892.987158  0.193327 -5.050803  4.449796
   scf:  122     -889.354594     -891.292663     -891.293353  0.169449 -4.984010  6.177423
   scf:  123     -890.349260     -890.827978     -890.828358  0.040914 -4.886714  6.454677
   scf:  124     -890.468942     -890.650077     -890.650151  0.071591 -4.741390  6.363498
   scf:  125     -891.988889     -891.333302     -891.334400  0.070964 -4.863583  5.971357
   scf:  126     -852.308431     -884.718389     -884.718565  1.634095 -5.385750 10.852387
   scf:  127     -875.482147     -891.852885     -891.853966  1.584771 -4.913049  5.446163
   scf:  128     -889.194637     -890.574536     -890.574555  0.111511 -4.783780  6.537628
   scf:  129     -890.043206     -890.310600     -890.310605  0.020268 -4.769114  6.776951
   scf:  130     -885.477585     -887.982504     -887.982504  0.161309 -4.195969  8.490667
   scf:  131     -888.948901     -888.468849     -888.468849  0.041008 -4.470170  8.145702
   scf:  132     -848.180987     -884.729082     -884.729084  1.840984 -5.606767 10.846095
   scf:  133     -898.115820     -893.405313     -893.416052  0.628693 -5.205582  4.250593
   scf:  134     -875.173818     -885.895725     -885.896234  0.564786 -5.381204 10.246115
   scf:  135     -896.575684     -894.777768     -894.788105  0.846618 -5.146272  1.467548
   scf:  136     -878.697311     -889.867939     -889.867940  0.838602 -4.856234  7.254995
   scf:  137     -890.340872     -890.105650     -890.105653  0.017620 -4.876784  7.061547
   scf:  138     -893.073438     -891.659487     -891.659774  0.127990 -5.020164  5.768193
   scf:  139     -859.133945     -886.518465     -886.519692  1.509084 -5.419408  9.737587
   scf:  140     -883.597404     -885.091712     -885.091749  0.149434 -5.539763 10.602453
   scf:  141     -897.519981     -894.532330     -894.543895  0.802043 -5.262038  2.179624
   scf:  142     -888.459675     -892.079366     -892.089075  0.341949 -5.240157  5.749096
   scf:  143     -878.662683     -891.425867     -891.426125  1.144130 -4.940867  5.898807
   scf:  144     -889.572561     -890.522727     -890.522745  0.074641 -4.893040  6.702795
   scf:  145     -888.087292     -889.335054     -889.335054  0.087943 -4.711679  7.561216
   scf:  146     -849.261934     -884.732114     -884.732115  1.781297 -5.637731 10.972508
   scf:  147     -884.908515     -884.820811     -884.820815  0.020586 -5.579516 10.899888
   scf:  148     -885.328027     -885.076609     -885.076637  0.046385 -5.487798 10.750755
   scf:  149     -885.133898     -885.105321     -885.105345  0.002299 -5.524115 10.640994
   scf:  150     -885.001472     -885.053452     -885.053469  0.007500 -5.531748 10.684998
   scf:  151     -872.928962     -891.261222     -891.261426  1.617547 -4.976940  6.101357
   scf:  152     -895.775330     -893.934647     -893.939917  0.301926 -5.111272  3.196592
   scf:  153     -883.241554     -889.416173     -889.416173  0.446676 -4.669652  7.460935
   scf:  154     -888.759605     -889.089824     -889.089824  0.021873 -4.632071  7.719234
   scf:  155     -889.101345     -889.095666     -889.095666  0.011344 -4.638929  7.716560
   scf:  156     -853.016946     -885.828015     -885.829031  1.745218 -5.278906 10.301250
   scf:  157     -895.072579     -894.895293     -894.907522  0.949314 -5.071793  0.652961
   scf:  158     -884.025785     -891.260974     -891.261043  0.630949 -4.870555  5.983875
   scf:  159     -865.690976     -888.452669     -888.456878  1.431603 -5.263080  8.636285
   scf:  160     -896.531062     -893.352944     -893.363082  0.415199 -5.150783  4.530033
   scf:  161     -894.153576     -894.833870     -894.841241  0.470855 -5.125990  1.117450
   scf:  162     -893.020569     -894.129154     -894.132409  0.206215 -5.118807  2.913217
   scf:  163     -890.332553     -892.459562     -892.460054  0.224909 -4.982610  4.949009
   scf:  164     -894.640145     -893.647338     -893.649226  0.144738 -5.026467  3.678569
   scf:  165     -893.336789     -893.494397     -893.496193  0.022282 -5.022237  3.861188
   scf:  166     -890.476123     -892.099336     -892.099421  0.166891 -4.815558  5.363607
   scf:  167     -895.850205     -894.638083     -894.655608  0.383031 -5.123317  1.836934
   scf:  168     -882.771804     -891.502719     -891.518774  0.758139 -5.418076  6.192197
   scf:  169     -883.120400     -892.711470     -892.712037  1.072645 -5.138780  4.757326
   scf:  170     -893.100247     -892.908138     -892.909000  0.021737 -5.145134  4.546718
   scf:  171     -893.128108     -893.019283     -893.020045  0.015721 -5.206106  4.493236
   scf:  172     -890.682658     -891.912916     -891.913051  0.120046 -5.045302  5.681746
   scf:  173     -890.693030     -891.315949     -891.315985  0.067314 -4.979680  6.155779
   scf:  174     -895.109003     -893.440585     -893.443003  0.223384 -5.063114  3.848457
   scf:  175     -881.270687     -891.800510     -891.814648  0.957542 -5.440251  6.058239
   scf:  176     -878.355514     -891.420916     -891.421042  1.169662 -5.041953  6.175027
   scf:  177     -893.963317     -892.770916     -892.772502  0.132459 -5.156807  4.757678
   scf:  178     -888.218738     -890.659649     -890.659650  0.196666 -4.897759  6.838772
   scf:  179     -890.378290     -890.519735     -890.519736  0.016074 -4.661179  6.708975
   scf:  180     -886.835475     -888.739136     -888.739136  0.124683 -4.365294  8.253496
   scf:  181     -896.144165     -894.788470     -894.795264  0.713267 -5.063358  1.340091
   scf:  182     -861.215309     -884.362131     -884.362131  1.116370 -5.659187 11.450663
   scf:  183     -895.450994     -894.859138     -894.867956  1.014090 -5.144120  1.170478
   scf:  184     -892.324037     -894.099704     -894.102992  0.327421 -5.091408  2.972639
   scf:  185     -894.622297     -894.375561     -894.380350  0.055530 -5.112507  2.478031
   scf:  186     -893.364344     -894.626386     -894.638416  0.395913 -5.205673  2.124518
   scf:  187     -881.831367     -889.782743     -889.792189  0.558264 -5.295810  7.702692
   scf:  188     -886.758399     -893.751622     -893.754376  1.068794 -5.101867  3.451034
   scf:  189     -895.111224     -894.546952     -894.552789  0.155223 -5.103344  2.139322
   scf:  190     -894.129207     -894.349246     -894.353999  0.048172 -5.108188  2.547740
   scf:  191     -894.848202     -894.621910     -894.628728  0.069936 -5.127904  1.924214
   scf:  192     -893.473780     -894.112438     -894.115927  0.117666 -5.069695  2.994175
   scf:  193     -893.928276     -894.021975     -894.024603  0.025242 -5.156036  3.103582
   scf:  194     -892.920893     -893.505500     -893.516696  0.082590 -5.044452  3.732089
   scf:  195     -891.662640     -894.390156     -894.413197  0.614431 -5.362017  2.416481
   scf:  196     -885.538354     -892.474698     -892.475437  0.736205 -5.279205  5.217583
   scf:  197     -892.162615     -892.319856     -892.320637  0.016386 -5.226198  5.397777
   scf:  198     -895.779969     -894.594227     -894.605952  0.343223 -5.345849  1.837331
   scf:  199     -887.584459     -891.787226     -891.787320  0.397404 -4.986950  5.670853
   scf:  200     -891.825057     -891.806157     -891.806246  0.001770 -4.987166  5.657483
   scf:  201     -890.399715     -891.118746     -891.118758  0.062376 -4.853435  6.216334
   scf:  202     -855.359948     -885.697474     -885.702052  1.604302 -5.669667  9.894317
   scf:  203     -875.727126     -891.818326     -891.818378  1.540757 -5.002656  5.715876
   scf:  204     -891.907965     -891.863222     -891.863284  0.004203 -5.015533  5.680549
   scf:  205     -894.168187     -893.090941     -893.093727  0.130337 -5.195745  4.385754
   scf:  206     -893.678042     -893.391166     -893.394773  0.039058 -5.253377  4.057548
   scf:  207     -892.111085     -892.776375     -892.777352  0.074964 -5.151657  4.752538
   scf:  208     -892.344748     -892.563006     -892.563588  0.024242 -5.118388  4.982729
   scf:  209     -853.795520     -884.491813     -884.491945  1.517491 -5.680016 10.452307
   scf:  210     -884.749324     -893.734241     -893.736487  1.369820 -5.240257  3.563068
   scf:  211     -894.458176     -894.874306     -894.890770  0.403047 -5.337220  0.705535
   scf:  212     -894.861129     -894.897256     -894.912888  0.078248 -5.325429  0.438832
   scf:  213     -892.904748     -894.191583     -894.196971  0.248450 -5.235367  2.713072
   scf:  214     -893.980671     -894.087878     -894.092813  0.019391 -5.230535  2.911960
   scf:  215     -894.879959     -894.898392     -894.909347  0.294317 -5.296545  0.317595
   scf:  216     -889.845304     -893.212341     -893.216483  0.423437 -5.208274  4.221068
   scf:  217     -894.161461     -893.707786     -893.720863  0.068355 -5.276246  3.557041
   scf:  218     -891.662878     -892.752588     -892.759781  0.122088 -5.184857  4.766194
   scf:  219     -894.429250     -894.866176     -894.916311  0.521081 -5.438493  0.602782
   scf:  220     -894.630988     -894.768351     -894.821701  0.063864 -5.451063  1.253957
   scf:  221     -875.943375     -887.979820     -888.013118  0.726620 -5.637627  8.522748
   scf:  222     -895.618574     -892.332441     -892.377080  0.335837 -5.510526  5.275004
   scf:  223     -893.401555     -894.776426     -894.800153  0.627233 -5.367247  1.184078
   scf:  224     -894.786549     -894.781520     -894.804902  0.006395 -5.368264  1.165392
   scf:  225     -894.905032     -894.903767     -894.934462  0.112580 -5.417646  0.126108
   scf:  226     -894.884652     -894.897701     -894.923125  0.027458 -5.409483  0.360318
   scf:  227     -894.901058     -894.904225     -894.933285  0.032134 -5.454983  0.080995
   scf:  228     -894.880628     -894.895933     -894.934973  0.080385 -5.489242  0.218171
   scf:  229     -894.894596     -894.897405     -894.938290  0.021122 -5.507672  0.043256
   scf:  230     -894.892886     -894.895524     -894.937074  0.009100 -5.504575  0.122442
   scf:  231     -894.790086     -894.854507     -894.902088  0.048957 -5.505736  0.661949
   scf:  232     -894.857675     -894.893672     -894.930724  0.087678 -5.509118  0.320460
   scf:  233     -894.899398     -894.898653     -894.937851  0.020847 -5.506611  0.107141
   scf:  234     -894.897613     -894.898324     -894.938327  0.006218 -5.507223  0.046073
   scf:  235     -894.884975     -894.893120     -894.935610  0.017229 -5.526320  0.176388
   scf:  236     -894.899110     -894.896387     -894.937544  0.008507 -5.522582  0.106738
   scf:  237     -894.899767     -894.898761     -894.938308  0.011853 -5.517245  0.074046
   scf:  238     -894.898498     -894.898631     -894.938306  0.000826 -5.513454  0.071251
   scf:  239     -894.898321     -894.898478     -894.938354  0.002495 -5.512254  0.067723
   scf:  240     -894.898527     -894.898502     -894.938340  0.000548 -5.512649  0.069395
   scf:  241     -894.898789     -894.898653     -894.938395  0.001620 -5.506655  0.053435
   scf:  242     -894.897867     -894.898266     -894.938451  0.004335 -5.498037  0.033526
   scf:  243     -894.897675     -894.897974     -894.938472  0.002374 -5.498570  0.028478
   scf:  244     -894.897224     -894.897602     -894.938479  0.003992 -5.499733  0.024866
   scf:  245     -894.897748     -894.897676     -894.938475  0.001348 -5.497520  0.026461
   scf:  246     -894.897886     -894.897781     -894.938467  0.001181 -5.498743  0.027538
   scf:  247     -894.897297     -894.897541     -894.938466  0.002289 -5.501083  0.029043
   scf:  248     -894.898090     -894.897817     -894.938481  0.001938 -5.498313  0.027152
   scf:  249     -894.897603     -894.897715     -894.938498  0.001481 -5.492174  0.023178
   scf:  250     -894.897362     -894.897540     -894.938494  0.001200 -5.493667  0.023757
SCF_NOT_CONV: SCF did not converge in maximum number of steps (required).
SCF_NOT_CONV: SCF did not converge in maximum number of steps (required).
Geom step, scf iteration, dDmax, dHmax:  146   250      0.001200     0.001746
Geom step, scf iteration, dDmax, dHmax:  146   250      0.001200     0.001746

timer: Elapsed wall time (sec) =     548.681
timer: CPU execution times (sec):

Routine            Calls   Time/call    Tot.time        %
siesta                 1    2479.371    2479.371   100.00
Setup                  1       1.018       1.018     0.04
bands                  1       0.000       0.000     0.00
KSV_init               1       0.000       0.000     0.00
IterGeom             146      16.975    2478.353    99.96
geom_init            146       0.195      28.470     1.15
state_init           146       0.001       0.115     0.00
hsparse              146       0.000       0.006     0.00
overlap              146       0.001       0.080     0.00
Setup_H0             146       0.090      13.118     0.53
naefs                291       0.000       0.006     0.00
dnaefs               291       0.000       0.003     0.00
MolMec               291       0.000       0.000     0.00
kinefsm              291       0.000       0.099     0.00
nlefsm               291       0.002       0.598     0.02
DHSCF_Init           146       0.086      12.540     0.51
DHSCF1               146       0.008       1.130     0.05
InitMesh             146       0.008       1.128     0.05
INITMESH             146       0.000       0.000     0.00
DHSCF2               146       0.078      11.410     0.46
REMESH               146       0.003       0.441     0.02
REORD              11368       0.002      23.384     0.94
PHION                146       0.038       5.484     0.22
COMM_BSC           18816       0.002      30.867     1.24
POISON              4741       0.154     730.686    29.47
fft                 9482       0.055     523.603    21.12
setup_H             4450       0.547    2434.647    98.20
DHSCF               4595       0.535    2456.192    99.07
DHSCF3              4595       0.532    2446.502    98.67
rhoofd              4595       0.035     161.162     6.50
XC                  4595       0.288    1324.575    53.42
GXC-CellXC          4595       0.276    1265.978    51.06
gridxc@cellXC       4595       0.275    1265.870    51.06
vmat                4595       0.004      18.915     0.76
IterSCF             4304       0.563    2424.864    97.80
compute_dm          4304       0.001       4.819     0.19
diagon              4304       0.001       4.754     0.19
r-eigvec            4304       0.001       4.139     0.17
r-buildHS           4304       0.000       0.009     0.00
rdiag               4304       0.001       4.112     0.17
rdiag1              4304       0.000       0.019     0.00
rdiag2              4304       0.000       0.051     0.00
rdiag3              4304       0.001       3.826     0.15
rdiag4              4304       0.000       0.159     0.01
r-buildD            4304       0.000       0.415     0.02
MIXER               4159       0.000       0.116     0.00
PostSCF              145       0.172      24.903     1.00
FINAL_HF             145       0.172      24.901     1.00
DHSCF4               145       0.067       9.676     0.39
dfscf                145       0.050       7.197     0.29
overfsm              145       0.000       0.023     0.00
writeHSX             145       0.000       0.014     0.00
state_analysis       145       0.000       0.016     0.00
siesta_move          145       0.000       0.038     0.00
  
ABNORMAL_TERMINATION
ABNORMAL_TERMINATION
Stopping Program from Node:    0
Stopping Program from Node:    0

Program received signal SIGABRT: Process abort signal.

Backtrace for this error:
#0  0x7cee14023960 in ???
#1  0x7cee14022ac5 in ???
#2  0x7cee13c4251f in ???
	at ./signal/../sysdeps/unix/sysv/linux/x86_64/libc_sigaction.c:0
#3  0x7cee13c969fc in __pthread_kill_implementation
	at ./nptl/pthread_kill.c:44
#4  0x7cee13c969fc in __pthread_kill_internal
	at ./nptl/pthread_kill.c:78
#5  0x7cee13c969fc in __GI___pthread_kill
	at ./nptl/pthread_kill.c:89
#6  0x7cee13c42475 in __GI_raise
	at ../sysdeps/posix/raise.c:26
#7  0x7cee13c287f2 in __GI_abort
	at ./stdlib/abort.c:79
#8  0x649b232a63fa in ???
#9  0x649b2329d155 in ???
#10  0x7cee13c29d8f in __libc_start_call_main
	at ../sysdeps/nptl/libc_start_call_main.h:58
#11  0x7cee13c29e3f in __libc_start_main_impl
	at ../csu/libc-start.c:392
#12  0x649b2329d212 in ???
#13  0xffffffffffffffff in ???
