Executable      : siesta
Version         : 5.2.1
Architecture    : x86_64
Compiler version: GNU-13.3.0
Compiler flags  : -march=nocona -mtune=haswell -ftree-vectorize -fPIC -fstack-protector-strong -fno-plt -O2 -ffunction-sections -pipe -isystem <prefix>/include -I<prefix>/_build_env/include -fdebug-prefix-map=<prefix>/work=/usr/local/src/conda/siesta-5.2.1 -fdebug-prefix-map=<prefix>=/usr/local/src/conda-prefix -I<prefix>/lib -fallow-argument-mismatch -O3
Parallelisations: none
NetCDF support
NetCDF-4 support
Lua support
DFT-D3 support

Runtime information:
* Directory : /home/samba/homes/convidat/Simulacions/0.4
* Running in serial mode.
>> Start of run:  24-MAR-2025  16:50:18

                           *********************** 
                           *  WELCOME TO SIESTA  * 
                           *********************** 

 NOTE: Siesta V5 introduces some new defaults for basis-set generation
 NOTE: which might lead to slightly different numerical results.
 NOTE: Please see the manual for full details and compatibility measures.


reinit: Reading from file xoc.fdf

reinit: -----------------------------------------------------------------------
reinit: System Name: H2 + O2 -> H2O2 reaction
reinit: -----------------------------------------------------------------------
reinit: System Label: xoc
reinit: -----------------------------------------------------------------------

initatom: Reading input for the pseudopotentials and atomic orbitals ----------
Species number:   1 Atomic number:    8 Label: O
Species number:   2 Atomic number:    1 Label: H

Ground state valence configuration (from tables):   2s02  2p04  3d00  4f00
Ground state valence configuration (from tables):   1s01  2p00  3d00  4f00

---- Processing specs for species: O
Reading pseudopotential information in formatted form from:
  O.psf

---- Processing specs for species: H
Reading pseudopotential information in unformatted form from:
  H.vps

---- Pseudopotential check for O 

Pseudopotential generated from a fully relativistic atomic calculation
There are spin-orbit semi-local pseudopotentials available

Pseudized shells:
2s( 2.00) rc: 1.14
2p( 4.00) rc: 1.14
3d( 0.00) rc: 1.14
4f( 0.00) rc: 1.14
Valence configuration for ps generation: (assumed as above)

---- Pseudopotential check for H 

Pseudized shells:
1s( 1.00) rc: 1.25
2p( 0.00) rc: 1.25
3d( 0.00) rc: 1.25
4f( 0.00) rc: 1.25
Valence configuration for ps generation: (assumed as above)
For O, standard SIESTA heuristics set lmxkb to 3
 (one more than the basis l, including polarization orbitals).
Use PS.lmax or PS.KBprojectors blocks to override.
For H, standard SIESTA heuristics set lmxkb to 2
 (one more than the basis l, including polarization orbitals).
Use PS.lmax or PS.KBprojectors blocks to override.

<basis_specs>
===============================================================================
O                    Z=   8    Mass=  15.999        Charge= 0.17977+309
Lmxo=2 Lmxkb= 3    BasisType=split      Semic=F
L=0  Nsemic=0  Cnfigmx=2
          i=1  nzeta=1  polorb=0  (2s)
            splnorm:   0.15000    
               vcte:    40.000    
               rinn:  -0.90000    
               qcoe:    0.0000    
               qyuk:    0.0000    
               qwid:   0.10000E-01
                rcs:    0.0000    
            lambdas:    1.0000    
L=1  Nsemic=0  Cnfigmx=2
          i=1  nzeta=1  polorb=1  (2p)  (to be polarized perturbatively)
            splnorm:   0.15000    
               vcte:    40.000    
               rinn:  -0.90000    
               qcoe:    0.0000    
               qyuk:    0.0000    
               qwid:   0.10000E-01
                rcs:    0.0000    
            lambdas:    1.0000    
L=2  Nsemic=0  Cnfigmx=3
          i=1  nzeta=0  polorb=0  (3d)  (perturbative polarization orbital) (from 2p)
-------------------------------------------------------------------------------
L=0  Nkbl=1  erefs: 0.17977+309
L=1  Nkbl=1  erefs: 0.17977+309
L=2  Nkbl=1  erefs: 0.17977+309
L=3  Nkbl=1  erefs: 0.17977+309
===============================================================================
</basis_specs>

Using PAO.SplitTailNorm
atom: Called for O                     (Z =   8)
Maximum radius (at nrval) set to   50.00000 8518

read_vps: Pseudopotential generation method:
read_vps: ATM3      Troullier-Martins                       
Valence charge in pseudo generation:    6.00000

read_vps: Pseudopotential includes a core correction:
read_vps: Pseudo-core for xc-correction

xc_check: Exchange-correlation functional:
xc_check: GGA Perdew, Burke & Ernzerhof 1996
V l=0 = -2*Zval/r beyond r=  1.1355
V l=1 = -2*Zval/r beyond r=  1.1355
V l=2 = -2*Zval/r beyond r=  1.1309
V l=3 = -2*Zval/r beyond r=  1.1286
All V_l potentials equal beyond r=  1.1355
This should be close to max(r_c) in ps generation
All pots = -2*Zval/r beyond r=  1.1355
Using small-core scheme (local charge) for Vlocal

VLOCAL_FROM_CHLOCAL: 99.0% of the norm of Vloc inside     33.667 Ry
VLOCAL_FROM_CHLOCAL: 99.9% of the norm of Vloc inside     76.727 Ry
atom: Maximum radius for chlocal:    1.37241
atom: Maximum radius for r*vlocal+2*Zval:    1.25469

KBgen: Kleinman-Bylander projectors: 
GHOST: No ghost state for L =  0
   l= 0   rc=  1.357289   el= -1.759790   Ekb=  9.151830   kbcos=  0.327271
GHOST: No ghost state for L =  1
   l= 1   rc=  1.345038   el= -0.663797   Ekb= -7.991133   kbcos= -0.393963
GHOST: No ghost state for L =  2
   l= 2   rc=  1.779310   el=  0.012956   Ekb= -1.983219   kbcos= -0.003702
GHOST: No ghost state for L =  3
   l= 3   rc=  2.085579   el=  0.019231   Ekb= -0.873623   kbcos= -0.000360

KBgen: Total number of Kleinman-Bylander projectors:  16
atom: -------------------------------------------------------------------------

atom: SANKEY-TYPE ORBITALS:

SPLIT: Orbitals with angular momentum L= 0

SPLIT: Basis orbitals for state 2s

SPLIT: PAO cut-off radius determined from an
SPLIT: energy shift=  0.010000 Ry
Split based on tail norm

   izeta = 1
                 lambda =    1.000000
                     rc =    3.532490
                 energy =   -1.748682
                kinetic =    1.612754
    potential(screened) =   -3.361436
       potential(ionic) =  -11.306460

SPLIT: Orbitals with angular momentum L= 1

SPLIT: Basis orbitals for state 2p

SPLIT: PAO cut-off radius determined from an
SPLIT: energy shift=  0.010000 Ry
Split based on tail norm

   izeta = 1
                 lambda =    1.000000
                     rc =    4.299534
                 energy =   -0.652755
                kinetic =    4.913628
    potential(screened) =   -5.566382
       potential(ionic) =  -13.292903

POLgen: Perturbative polarization orbital with L=  2

POLgen: Polarization orbital for state 2p
Split based on tail norm

   izeta = 1
                     rc =    4.299534
                 energy =    2.258078
                kinetic =    4.298689
    potential(screened) =   -2.040611
       potential(ionic) =   -8.188336
atom: Total number of Sankey-type orbitals:  9

atm_pop: Valence configuration (for local Pseudopot. screening):
 2s( 2.00)                                                            
 2p( 4.00)                                                            
 3d( 0.00)                                                            
Vna: chval, zval:    6.00000   6.00000

Vna:  Cut-off radius for the neutral-atom potential:   4.299534
comcore: Pseudo-core radius Rcore=  1.364142

atom: _________________________________________________________________________

<basis_specs>
===============================================================================
H                    Z=   1    Mass=  1.0080        Charge= 0.17977+309
Lmxo=1 Lmxkb= 2    BasisType=split      Semic=F
L=0  Nsemic=0  Cnfigmx=1
          i=1  nzeta=1  polorb=1  (1s)  (to be polarized perturbatively)
            splnorm:   0.15000    
               vcte:    40.000    
               rinn:  -0.90000    
               qcoe:    0.0000    
               qyuk:    0.0000    
               qwid:   0.10000E-01
                rcs:    0.0000    
            lambdas:    1.0000    
L=1  Nsemic=0  Cnfigmx=2
          i=1  nzeta=0  polorb=0  (2p)  (perturbative polarization orbital) (from 1s)
-------------------------------------------------------------------------------
L=0  Nkbl=1  erefs: 0.17977+309
L=1  Nkbl=1  erefs: 0.17977+309
L=2  Nkbl=1  erefs: 0.17977+309
===============================================================================
</basis_specs>

Using PAO.SplitTailNorm
atom: Called for H                     (Z =   1)
Maximum radius (at nrval) set to   50.00000 8518

read_vps: Pseudopotential generation method:
read_vps: ATM3      Troullier-Martins                       
Valence charge in pseudo generation:    1.00000

xc_check: Exchange-correlation functional:
xc_check: GGA Perdew, Burke & Ernzerhof 1996
V l=0 = -2*Zval/r beyond r=  1.2384
V l=1 = -2*Zval/r beyond r=  1.2321
V l=2 = -2*Zval/r beyond r=  1.2235
All V_l potentials equal beyond r=  1.2371
This should be close to max(r_c) in ps generation
All pots = -2*Zval/r beyond r=  1.2384
Using small-core scheme (local charge) for Vlocal

VLOCAL_FROM_CHLOCAL: 99.0% of the norm of Vloc inside     28.363 Ry
VLOCAL_FROM_CHLOCAL: 99.9% of the norm of Vloc inside     64.639 Ry
atom: Maximum radius for chlocal:    1.44620
atom: Maximum radius for r*vlocal+2*Zval:    1.31026

KBgen: Kleinman-Bylander projectors: 
GHOST: No ghost state for L =  0
   l= 0   rc=  1.362769   el= -0.477200   Ekb= -2.026093   kbcos= -0.345051
GHOST: No ghost state for L =  1
   l= 1   rc=  1.431710   el=  0.007219   Ekb= -0.445752   kbcos= -0.023729
GHOST: No ghost state for L =  2
   l= 2   rc=  1.471166   el=  0.012944   Ekb= -0.141918   kbcos= -0.003041

KBgen: Total number of Kleinman-Bylander projectors:   9
atom: -------------------------------------------------------------------------

atom: SANKEY-TYPE ORBITALS:

SPLIT: Orbitals with angular momentum L= 0

SPLIT: Basis orbitals for state 1s

SPLIT: PAO cut-off radius determined from an
SPLIT: energy shift=  0.010000 Ry
Split based on tail norm

   izeta = 1
                 lambda =    1.000000
                     rc =    5.232664
                 energy =   -0.466073
                kinetic =    0.944036
    potential(screened) =   -1.410108
       potential(ionic) =   -1.935607

POLgen: Perturbative polarization orbital with L=  1

POLgen: Polarization orbital for state 1s
Split based on tail norm

   izeta = 1
                     rc =    5.232664
                 energy =    0.681103
                kinetic =    1.331928
    potential(screened) =   -0.650824
       potential(ionic) =   -1.138826
atom: Total number of Sankey-type orbitals:  4

atm_pop: Valence configuration (for local Pseudopot. screening):
 1s( 1.00)                                                            
 2p( 0.00)                                                            
Vna: chval, zval:    1.00000   1.00000

Vna:  Cut-off radius for the neutral-atom potential:   5.232664

atom: _________________________________________________________________________

prinput: Basis input 

PAO.BasisType split     

%block ChemicalSpeciesLabel
    1    8 O                       # Species index, atomic number, species label
    2    1 H                       # Species index, atomic number, species label
%endblock ChemicalSpeciesLabel

%block PAO.Basis                 # Define Basis set
# WARNING: This information might be incomplete!
O                     2                    # Species label, number of l-shells
 n=2   0   1                         # n, l, Nzeta 
   3.532   
   1.000   
 n=2   1   1 P   1                   # n, l, Nzeta, Polarization, NzetaPol
   4.300   
   1.000   
H                     1                    # Species label, number of l-shells
 n=1   0   1 P   1                   # n, l, Nzeta, Polarization, NzetaPol
   5.233   
   1.000   
%endblock PAO.Basis

prinput: ----------------------------------------------------------------------

Dumping basis to NetCDF file O.ion.nc
Dumping basis to NetCDF file H.ion.nc
coor:   Atomic-coordinates input format  =     Cartesian coordinates
coor:                                          (in Angstroms)

ioxv: Reading coordinates and velocities from file
! Info in XV file prevails over previous structure input
WARNING: xoc.VERLET_RESTART not found--reading only XV file and moving back 1 time step using Euler

siesta: Atomic coordinates (Bohr) and species
siesta:      2.68537  -0.61014   0.11995  1        1
siesta:      4.90071   0.60581  -0.12430  1        2
siesta:      9.92326  -0.31104  -0.51517  2        3
siesta:      8.54026   0.36995   0.56890  2        4

siesta: System type = molecule  

initatomlists: Number of atoms, orbitals, and projectors:      4    26    50

coxmol: Writing XMOL coordinates into file xoc.xyz                                                                                                                                                                                                                             

siesta: ******************** Simulation parameters ****************************
siesta:
siesta: The following are some of the parameters of the simulation.
siesta: A complete list of the parameters used, including default values,
siesta: can be found in file out.fdf
siesta:
redata: Spin configuration                          = none
redata: Number of spin components                   = 1
redata: Time-Reversal Symmetry                      = T
redata: Spin spiral                                 = F
redata: Long output                                 =   F
redata: Number of Atomic Species                    =        2
redata: Charge density info will appear in .RHO file
redata: Write Mulliken charges (when)               = none
redata: Write Mulliken Pop.                         = NO
redata: Write Hirshfeld charges (when)              = none
redata: Write Voronoi charges (when)                = none
redata: Write spin charge (when)                    = none
redata: Matel table size (NRTAB)                    =     1024
redata: Mesh Cutoff                                 =   200.0000 Ry
redata: Net charge of the system                    =     0.0000 |e|
redata: Min. number of SCF Iter                     =        0
redata: Max. number of SCF Iter                     =      250
redata: SCF convergence failure will abort job
redata: SCF mix quantity                            = Hamiltonian
redata: Mix DM or H after convergence               =   F
redata: Recompute H after scf cycle                 =   F
redata: Mix DM in first SCF step                    =   T
redata: Write Pulay info on disk                    =   F
redata: New DM Occupancy tolerance                  = 0.000000000001
redata: No kicks to SCF
redata: DM Mixing Weight for Kicks                  =     0.5000
redata: Require Harris convergence for SCF          =   F
redata: Harris energy tolerance for SCF             =     0.000100 eV
redata: Require DM convergence for SCF              =   T
redata: DM tolerance for SCF                        =     0.000300
redata: Require EDM convergence for SCF             =   F
redata: EDM tolerance for SCF                       =     0.001000 eV
redata: Require H convergence for SCF               =   T
redata: Hamiltonian tolerance for SCF               =     0.001000 eV
redata: Require (free) Energy convergence for SCF   =   F
redata: (free) Energy tolerance for SCF             =     0.000100 eV
redata: Using DFT-D3 dispersion                     =   F
redata: Using Saved Data (generic)                  =   F
redata: Use continuation files for DM               =   T
redata: Neglect nonoverlap interactions             =   F
redata: Method of Calculation                       = Diagonalization
redata: Electronic Temperature                      =   290.1130 K
redata: Fix the spin of the system                  =   F
redata: Max. number of TDED Iter                    =        1
redata: Number of TDED substeps                     =        3
redata: Dynamics option                             = Verlet MD run
redata: Initial MD time step                        =        1
redata:   Final MD time step                        =      200
redata: Length of MD time step                      =     1.0000 fs
redata: Initial Temperature of MD run               =     0.0000 K
redata: Perform a MD quench                         =   F
mix.SCF: Pulay mixing                            = Pulay
mix.SCF:    Variant                              = stable
mix.SCF:    History steps                        = 6
mix.SCF:    Linear mixing weight                 =     0.020000
mix.SCF:    Mixing weight                        =     0.020000
mix.SCF:    SVD condition                        = 0.1000E-07
redata: Save all siesta data in one NC              =   F
redata: ***********************************************************************

%block SCF.Mixers
  Pulay
%endblock SCF.Mixers

%block SCF.Mixer.Pulay
  # Mixing method
  method pulay
  variant stable

  # Mixing options
  weight 0.0200
  weight.linear 0.0200
  history 6
%endblock SCF.Mixer.Pulay

Size of DM history Fstack: 1
Total number of electrons:    14.000000
Total ionic charge:    14.000000
 Kpoints in:            1 . Kpoints trimmed:            1

siesta: k-grid: Number of k-points = 1
siesta: k-points from Monkhorst-Pack grid
siesta: k-cutoff (effective) =     5.000 Ang
siesta: k-point supercell and displacements
siesta: k-grid:     1     0     0      0.000
siesta: k-grid:     0     1     0      0.000
siesta: k-grid:     0     0     1      0.000

diag: Algorithm                                     = D&C
diag: Used triangular part                          = Lower
diag: Absolute tolerance                            =  0.100E-15
diag: Orthogonalization factor                      =  0.100E-05
diag: Memory factor                                 =  1.0000


ts: **************************************************************
ts: Save H and S matrices                           =    F
ts: Save DM and EDM matrices                        =    F
ts: Only save the overlap matrix S                  =    F
ts: **************************************************************

************************ Begin: TS CHECKS AND WARNINGS ************************
************************ End: TS CHECKS AND WARNINGS **************************


                     ====================================
                        Begin MD step =      1
                     ====================================

outcell: Unit cell vectors (Ang):
       10.000004    0.000000    0.000000
        0.000000   10.000004    0.000000
        0.000000    0.000000   10.000004

outcell: Cell vector modules (Ang)   :   10.000004   10.000004   10.000004
outcell: Cell angles (23,13,12) (deg):     90.0000     90.0000     90.0000
outcell: Cell volume (Ang**3)        :   1000.0012
<dSpData1D:S at geom step 1
  <sparsity:sparsity for geom step 1
    nrows_g=26 nrows=26 sparsity=1.0000 nnzs=676, refcount: 7>
  <dData1D:(new from dSpData1D) n=676, refcount: 1>
refcount: 1>
new_DM -- step:     1
Initializing Density Matrix...

Attempting to read DM from file... Failed...
DM filled with atomic data:
<dSpData2D:DM initialized from atoms
  <sparsity:sparsity for geom step 1
    nrows_g=26 nrows=26 sparsity=1.0000 nnzs=676, refcount: 8>
  <dData2D:DM n=676 m=1, refcount: 1>
refcount: 1>
No. of atoms with KB's overlaping orbs in proc 0. Max # of overlaps:       4      26

InitMesh: MESH = 90 x 90 x 90 = 729000
InitMesh: Mesh cutoff (required, used) =   200.000   223.865 Ry
New grid distribution [1]: sub = 2

stepf: Fermi-Dirac step function

siesta: Program's energy decomposition (eV):
siesta: Ebs     =      -212.993726
siesta: Eions   =      1581.702395
siesta: Ena     =       337.665239
siesta: Ekin    =       615.164128
siesta: Enl     =       -87.682388
siesta: Eso     =         0.000000
siesta: Edftu   =         0.000000
siesta: DEna    =        18.883125
siesta: DUscf   =         1.947416
siesta: DUext   =         0.000000
siesta: Ex      =      -188.309031
siesta: Ec      =       -13.759210
siesta: Exc     =      -202.068241
siesta: EbV     =         0.000000
siesta: eta*DQ  =         0.000000
siesta: Emadel  =         0.000000
siesta: Emeta   =         0.000000
siesta: Emolmec =         0.000000
siesta: Ekinion =         0.000000
siesta: Eharris =      -900.369131
siesta: Etot    =      -897.793117
siesta: FreeEng =      -897.852743

        iscf     Eharris(eV)        E_KS(eV)     FreeEng(eV)     dDmax    Ef(eV) dHmax(eV)
   scf:    1     -900.369131     -897.793117     -897.852743  0.564733 -4.932708  3.291266
timer: Routine,Calls,Time,% = IterSCF        1       0.578  24.45
   scf:    2     -897.913053     -897.855336     -897.918510  0.040623 -4.979287  3.144480
   scf:    3     -896.633941     -897.731503     -897.752126  0.589193 -6.008141  1.242602
   scf:    4     -897.887386     -897.817346     -897.846329  0.029513 -6.434985  0.848385
   scf:    5     -898.111402     -898.249035     -898.316849  0.470611 -6.374818  0.177178
   scf:    6     -898.243472     -898.246371     -898.313888  0.009791 -6.368199  0.179289
   scf:    7     -898.191683     -898.245748     -898.314357  0.122735 -6.379147  0.140292
   scf:    8     -898.231763     -898.239107     -898.307257  0.013970 -6.401442  0.139410
   scf:    9     -898.245898     -898.244355     -898.312554  0.044336 -6.414519  0.099761
   scf:   10     -898.256786     -898.251016     -898.319671  0.017962 -6.415365  0.077865
   scf:   11     -898.260169     -898.260668     -898.329881  0.067091 -6.423216  0.014385
   scf:   12     -898.260710     -898.260692     -898.329903  0.001396 -6.421054  0.012139
   scf:   13     -898.260692     -898.260692     -898.329905  0.000249 -6.420665  0.011565
   scf:   14     -898.260735     -898.260716     -898.329922  0.001182 -6.419939  0.010117
   scf:   15     -898.260717     -898.260717     -898.329924  0.000424 -6.419606  0.009935
   scf:   16     -898.260722     -898.260721     -898.329930  0.000457 -6.415004  0.001991
   scf:   17     -898.260725     -898.260723     -898.329931  0.000185 -6.414876  0.001559
   scf:   18     -898.260737     -898.260730     -898.329932  0.000876 -6.414636  0.000622
   scf:   19     -898.260730     -898.260730     -898.329932  0.000019 -6.414654  0.000579

SCF Convergence by DM+H criterion
max |DM_out - DM_in|         :     0.0000185001
max |H_out - H_in|      (eV) :     0.0005792249
SCF cycle converged after 19 iterations

Using DM_out to compute the final energy and forces
No. of atoms with KB's overlaping orbs in proc 0. Max # of overlaps:       4      26

siesta: E_KS(eV) =             -898.2607

siesta: E_KS - E_eggbox =      -898.2607

siesta: Atomic forces (eV/Ang):
----------------------------------------
   Tot    0.004006   -0.000505    0.001136
----------------------------------------
   Max    1.871684
   Res    1.250689    sqrt( Sum f_i^2 / 3N )
----------------------------------------
   Max    1.871684    constrained

Stress tensor Voigt[x,y,z,yz,xz,xy] (kbar):      -11.07        0.89        1.03        0.56       -1.90        0.76
(Free)E + p*V (eV/cell)     -896.4253
Target enthalpy (eV/cell)     -898.3299

siesta: Stress tensor (static) (eV/Ang**3):
         0.002505    0.000489   -0.001221
         0.000489    0.000815    0.000432
        -0.001221    0.000432    0.000810

siesta: Pressure (static):         -2.20533089  kBar

siesta: Stress tensor (total) (eV/Ang**3):
        -0.006911    0.000476   -0.001187
         0.000476    0.000556    0.000352
        -0.001187    0.000352    0.000641

siesta: Pressure (total):          3.05159883  kBar

siesta: Temp_ion =   12691.944 K

                     ====================================
                        Begin MD step =      2
                     ====================================

outcell: Unit cell vectors (Ang):
       10.000004    0.000000    0.000000
        0.000000   10.000004    0.000000
        0.000000    0.000000   10.000004

outcell: Cell vector modules (Ang)   :   10.000004   10.000004   10.000004
outcell: Cell angles (23,13,12) (deg):     90.0000     90.0000     90.0000
outcell: Cell volume (Ang**3)        :   1000.0012
<dSpData1D:S at geom step 2
  <sparsity:sparsity for geom step 2
    nrows_g=26 nrows=26 sparsity=1.0000 nnzs=676, refcount: 7>
  <dData1D:(new from dSpData1D) n=676, refcount: 1>
refcount: 1>
new_DM -- step:     2
Re-using DM from previous geometries...
Number of DMs in history: 1
 DM extrapolation coefficients: 
1   1.00000
New DM after history re-use:
<dSpData2D:SpM extrapolated using coords
  <sparsity:sparsity for geom step 2
    nrows_g=26 nrows=26 sparsity=1.0000 nnzs=676, refcount: 9>
  <dData2D:(temp array for extrapolation) n=676 m=1, refcount: 1>
refcount: 1>
Note: For starting DM, Qtot, Tr[D*S] =         14.00000000         14.05333541
No. of atoms with KB's overlaping orbs in proc 0. Max # of overlaps:       4      26

InitMesh: MESH = 90 x 90 x 90 = 729000
InitMesh: Mesh cutoff (required, used) =   200.000   223.865 Ry
New grid distribution [1]: sub = 2

        iscf     Eharris(eV)        E_KS(eV)     FreeEng(eV)     dDmax    Ef(eV) dHmax(eV)
   scf:    1     -897.507691     -898.109407     -898.162029  0.308331 -6.758172  1.668474
   scf:    2     -891.193163     -896.173396     -896.173414  1.136624 -6.006928  5.733402
   scf:    3     -898.791897     -898.020764     -898.070767  0.451383 -6.615685  0.833887
   scf:    4     -898.381881     -898.248273     -898.315177  0.234515 -6.655853  0.355609
   scf:    5     -898.145776     -898.272299     -898.337106  0.288103 -6.624966  0.456935
   scf:    6     -897.724625     -898.053214     -898.092188  0.247032 -6.576331  0.916448
   scf:    7     -898.193750     -898.126659     -898.174419  0.057357 -6.566637  0.769946
   scf:    8     -898.359198     -898.278884     -898.344089  0.193933 -6.520543  0.279141
   scf:    9     -898.219674     -898.252159     -898.314202  0.048020 -6.500769  0.309949
   scf:   10     -898.293225     -898.274331     -898.339017  0.041459 -6.502703  0.237614
   scf:   11     -898.305937     -898.301242     -898.369958  0.110767 -6.500234  0.027466
   scf:   12     -898.245768     -898.284287     -898.353105  0.108399 -6.499564  0.168555
   scf:   13     -898.301275     -898.301504     -898.370389  0.098164 -6.499005  0.008686
   scf:   14     -898.301394     -898.301465     -898.370284  0.004252 -6.497434  0.016053
   scf:   15     -898.301510     -898.301503     -898.370393  0.004440 -6.497146  0.009309
   scf:   16     -898.301337     -898.301453     -898.370433  0.006362 -6.498666  0.004385
   scf:   17     -898.301514     -898.301487     -898.370438  0.002030 -6.497987  0.001979
   scf:   18     -898.301474     -898.301481     -898.370438  0.000523 -6.498203  0.001250
   scf:   19     -898.301481     -898.301481     -898.370438  0.000030 -6.498190  0.001227
   scf:   20     -898.301483     -898.301482     -898.370439  0.000104 -6.498255  0.000603

SCF Convergence by DM+H criterion
max |DM_out - DM_in|         :     0.0001039090
max |H_out - H_in|      (eV) :     0.0006026166
SCF cycle converged after 20 iterations

Using DM_out to compute the final energy and forces
No. of atoms with KB's overlaping orbs in proc 0. Max # of overlaps:       4      26

siesta: E_KS(eV) =             -898.3015

siesta: Atomic forces (eV/Ang):
----------------------------------------
   Tot    0.003585   -0.000058    0.000060
----------------------------------------
   Max    2.152800
   Res    0.970206    sqrt( Sum f_i^2 / 3N )
----------------------------------------
   Max    2.152800    constrained

Stress tensor Voigt[x,y,z,yz,xz,xy] (kbar):      -13.54        0.48        0.30        0.16       -1.16        1.37
(Free)E + p*V (eV/cell)     -895.7158
Target enthalpy (eV/cell)     -898.3704

siesta: Stress tensor (static) (eV/Ang**3):
         0.000963    0.000865   -0.000758
         0.000865    0.000557    0.000182
        -0.000758    0.000182    0.000359

siesta: Pressure (static):         -1.00365818  kBar

siesta: Stress tensor (total) (eV/Ang**3):
        -0.008453    0.000853   -0.000724
         0.000853    0.000299    0.000102
        -0.000724    0.000102    0.000190

siesta: Pressure (total):          4.25327154  kBar

siesta: Temp_ion =   12757.089 K

                     ====================================
                        Begin MD step =      3
                     ====================================

outcell: Unit cell vectors (Ang):
       10.000004    0.000000    0.000000
        0.000000   10.000004    0.000000
        0.000000    0.000000   10.000004

outcell: Cell vector modules (Ang)   :   10.000004   10.000004   10.000004
outcell: Cell angles (23,13,12) (deg):     90.0000     90.0000     90.0000
outcell: Cell volume (Ang**3)        :   1000.0012
<dSpData1D:S at geom step 3
  <sparsity:sparsity for geom step 3
    nrows_g=26 nrows=26 sparsity=1.0000 nnzs=676, refcount: 7>
  <dData1D:(new from dSpData1D) n=676, refcount: 1>
refcount: 1>
new_DM -- step:     3
Re-using DM from previous geometries...
Number of DMs in history: 1
 DM extrapolation coefficients: 
1   1.00000
New DM after history re-use:
<dSpData2D:SpM extrapolated using coords
  <sparsity:sparsity for geom step 3
    nrows_g=26 nrows=26 sparsity=1.0000 nnzs=676, refcount: 9>
  <dData2D:(temp array for extrapolation) n=676 m=1, refcount: 1>
refcount: 1>
Note: For starting DM, Qtot, Tr[D*S] =         14.00000000         14.05562380
No. of atoms with KB's overlaping orbs in proc 0. Max # of overlaps:       4      26

InitMesh: MESH = 90 x 90 x 90 = 729000
InitMesh: Mesh cutoff (required, used) =   200.000   223.865 Ry
New grid distribution [1]: sub = 2

        iscf     Eharris(eV)        E_KS(eV)     FreeEng(eV)     dDmax    Ef(eV) dHmax(eV)
   scf:    1     -896.671660     -897.793921     -897.828642  0.411375 -6.868930  2.241205
   scf:    2     -888.615369     -895.312668     -895.312669  1.304366 -5.713468  7.247325
   scf:    3     -898.684663     -897.595227     -897.630765  0.378706 -6.630351  1.652184
   scf:    4     -898.138432     -898.126481     -898.194794  0.543377 -6.749321  0.424569
   scf:    5     -898.128132     -898.128768     -898.196325  0.030586 -6.711407  0.367778
   scf:    6     -898.036608     -898.095767     -898.157407  0.109672 -6.640566  0.517733
   scf:    7     -898.125110     -898.111679     -898.175270  0.026321 -6.618064  0.415513
   scf:    8     -898.141337     -898.132519     -898.199717  0.075694 -6.576929  0.098423
   scf:    9     -898.134464     -898.133798     -898.201614  0.019736 -6.572512  0.048365
   scf:   10     -898.133101     -898.133902     -898.202268  0.021294 -6.570211  0.020642
   scf:   11     -898.131855     -898.133565     -898.201207  0.026949 -6.560128  0.036992
   scf:   12     -898.133695     -898.134083     -898.202328  0.021791 -6.564428  0.004073
   scf:   13     -898.134024     -898.134055     -898.202333  0.001347 -6.565172  0.003810
   scf:   14     -898.134065     -898.134060     -898.202333  0.000254 -6.564944  0.002826
   scf:   15     -898.134057     -898.134058     -898.202333  0.000276 -6.564783  0.002786
   scf:   16     -898.134070     -898.134064     -898.202332  0.000479 -6.564698  0.002067
   scf:   17     -898.134064     -898.134064     -898.202332  0.000098 -6.564212  0.001464
   scf:   18     -898.134060     -898.134062     -898.202332  0.000171 -6.563864  0.001470
   scf:   19     -898.134047     -898.134055     -898.202333  0.000491 -6.563738  0.000186
   scf:   20     -898.134055     -898.134055     -898.202333  0.000007 -6.563744  0.000179

SCF Convergence by DM+H criterion
max |DM_out - DM_in|         :     0.0000067003
max |H_out - H_in|      (eV) :     0.0001792224
SCF cycle converged after 20 iterations

Using DM_out to compute the final energy and forces
No. of atoms with KB's overlaping orbs in proc 0. Max # of overlaps:       4      26

siesta: E_KS(eV) =             -898.1341

siesta: Atomic forces (eV/Ang):
----------------------------------------
   Tot    0.003786    0.000247    0.001337
----------------------------------------
   Max    2.647177
   Res    0.974580    sqrt( Sum f_i^2 / 3N )
----------------------------------------
   Max    2.647177    constrained

Stress tensor Voigt[x,y,z,yz,xz,xy] (kbar):      -17.70       -0.20       -0.85       -0.46        0.22        2.40
(Free)E + p*V (eV/cell)     -894.3015
Target enthalpy (eV/cell)     -898.2023

siesta: Stress tensor (static) (eV/Ang**3):
        -0.001766    0.001446   -0.000004
         0.001446    0.000182   -0.000107
        -0.000004   -0.000107   -0.000224

siesta: Pressure (static):          0.96593753  kBar

siesta: Stress tensor (total) (eV/Ang**3):
        -0.011045    0.001497    0.000138
         0.001497   -0.000128   -0.000287
         0.000138   -0.000287   -0.000530

siesta: Pressure (total):          6.24984993  kBar

siesta: Temp_ion =   12287.119 K

                     ====================================
                        Begin MD step =      4
                     ====================================

outcell: Unit cell vectors (Ang):
       10.000004    0.000000    0.000000
        0.000000   10.000004    0.000000
        0.000000    0.000000   10.000004

outcell: Cell vector modules (Ang)   :   10.000004   10.000004   10.000004
outcell: Cell angles (23,13,12) (deg):     90.0000     90.0000     90.0000
outcell: Cell volume (Ang**3)        :   1000.0012
<dSpData1D:S at geom step 4
  <sparsity:sparsity for geom step 4
    nrows_g=26 nrows=26 sparsity=1.0000 nnzs=676, refcount: 7>
  <dData1D:(new from dSpData1D) n=676, refcount: 1>
refcount: 1>
new_DM -- step:     4
Re-using DM from previous geometries...
Number of DMs in history: 1
 DM extrapolation coefficients: 
1   1.00000
New DM after history re-use:
<dSpData2D:SpM extrapolated using coords
  <sparsity:sparsity for geom step 4
    nrows_g=26 nrows=26 sparsity=1.0000 nnzs=676, refcount: 9>
  <dData2D:(temp array for extrapolation) n=676 m=1, refcount: 1>
refcount: 1>
Note: For starting DM, Qtot, Tr[D*S] =         14.00000000         14.03027802
No. of atoms with KB's overlaping orbs in proc 0. Max # of overlaps:       4      26

InitMesh: MESH = 90 x 90 x 90 = 729000
InitMesh: Mesh cutoff (required, used) =   200.000   223.865 Ry
New grid distribution [1]: sub = 2

        iscf     Eharris(eV)        E_KS(eV)     FreeEng(eV)     dDmax    Ef(eV) dHmax(eV)
   scf:    1     -895.719380     -897.255302     -897.274942  0.455730 -6.787155  2.292583
   scf:    2     -886.887760     -894.455488     -894.455488  1.413834 -5.575868  8.063584
   scf:    3     -898.387310     -896.992232     -897.036219  0.440955 -6.546627  2.348343
   scf:    4     -896.526316     -897.455607     -897.496189  0.862936 -6.719706  1.420253
   scf:    5     -897.635134     -897.556969     -897.610427  0.106622 -6.673412  0.871966
   scf:    6     -897.604921     -897.618468     -897.685352  0.205304 -6.599998  0.063070
   scf:    7     -897.614583     -897.617847     -897.684800  0.032652 -6.592260  0.077566
   scf:    8     -897.466638     -897.561249     -897.629965  0.140282 -6.526975  0.669511
   scf:    9     -897.636867     -897.608106     -897.676493  0.090136 -6.548543  0.313132
   scf:   10     -897.581381     -897.613639     -897.675933  0.148867 -6.573731  0.225673
   scf:   11     -897.622024     -897.620379     -897.685603  0.054156 -6.561899  0.032036
   scf:   12     -897.620426     -897.620446     -897.685774  0.003589 -6.573769  0.064465
   scf:   13     -897.618904     -897.620207     -897.686642  0.026087 -6.574715  0.009158
   scf:   14     -897.619975     -897.620094     -897.686611  0.002109 -6.574580  0.011898
   scf:   15     -897.619245     -897.619698     -897.686440  0.006029 -6.575451  0.028268
   scf:   16     -897.620804     -897.620349     -897.686660  0.011308 -6.574445  0.005736
   scf:   17     -897.620378     -897.620364     -897.686659  0.000404 -6.574417  0.004903
   scf:   18     -897.620227     -897.620297     -897.686656  0.001593 -6.573858  0.002491
   scf:   19     -897.620361     -897.620330     -897.686659  0.000757 -6.573619  0.002944
   scf:   20     -897.620310     -897.620321     -897.686660  0.000756 -6.573512  0.003178
   scf:   21     -897.620319     -897.620320     -897.686660  0.000024 -6.573525  0.003125
   scf:   22     -897.620319     -897.620319     -897.686660  0.000012 -6.573510  0.003151
   scf:   23     -897.620327     -897.620323     -897.686660  0.000150 -6.573361  0.002880
   scf:   24     -897.620332     -897.620327     -897.686660  0.000097 -6.573309  0.002682
   scf:   25     -897.620355     -897.620341     -897.686661  0.000327 -6.573282  0.002165
   scf:   26     -897.620361     -897.620351     -897.686661  0.000237 -6.572092  0.000359

SCF Convergence by DM+H criterion
max |DM_out - DM_in|         :     0.0002372525
max |H_out - H_in|      (eV) :     0.0003592537
SCF cycle converged after 26 iterations

Using DM_out to compute the final energy and forces
No. of atoms with KB's overlaping orbs in proc 0. Max # of overlaps:       4      26

siesta: E_KS(eV) =             -897.6204

siesta: Atomic forces (eV/Ang):
----------------------------------------
   Tot    0.008380    0.000310    0.000220
----------------------------------------
   Max    4.233644
   Res    1.870690    sqrt( Sum f_i^2 / 3N )
----------------------------------------
   Max    4.233644    constrained

Stress tensor Voigt[x,y,z,yz,xz,xy] (kbar):      -22.91       -0.95       -1.60       -0.69        1.35        3.28
(Free)E + p*V (eV/cell)     -892.3913
Target enthalpy (eV/cell)     -897.6867

siesta: Stress tensor (static) (eV/Ang**3):
        -0.005407    0.002022    0.000671
         0.002022   -0.000273   -0.000229
         0.000671   -0.000229   -0.000676

siesta: Pressure (static):          3.39478445  kBar

siesta: Stress tensor (total) (eV/Ang**3):
        -0.014298    0.002050    0.000845
         0.002049   -0.000592   -0.000428
         0.000844   -0.000428   -0.000996

siesta: Pressure (total):          8.48403801  kBar

siesta: Temp_ion =   11006.515 K

                     ====================================
                        Begin MD step =      5
                     ====================================

outcell: Unit cell vectors (Ang):
       10.000004    0.000000    0.000000
        0.000000   10.000004    0.000000
        0.000000    0.000000   10.000004

outcell: Cell vector modules (Ang)   :   10.000004   10.000004   10.000004
outcell: Cell angles (23,13,12) (deg):     90.0000     90.0000     90.0000
outcell: Cell volume (Ang**3)        :   1000.0012
<dSpData1D:S at geom step 5
  <sparsity:sparsity for geom step 5
    nrows_g=26 nrows=26 sparsity=1.0000 nnzs=676, refcount: 7>
  <dData1D:(new from dSpData1D) n=676, refcount: 1>
refcount: 1>
new_DM -- step:     5
Re-using DM from previous geometries...
Number of DMs in history: 1
 DM extrapolation coefficients: 
1   1.00000
New DM after history re-use:
<dSpData2D:SpM extrapolated using coords
  <sparsity:sparsity for geom step 5
    nrows_g=26 nrows=26 sparsity=1.0000 nnzs=676, refcount: 9>
  <dData2D:(temp array for extrapolation) n=676 m=1, refcount: 1>
refcount: 1>
No. of atoms with KB's overlaping orbs in proc 0. Max # of overlaps:       4      26

InitMesh: MESH = 90 x 90 x 90 = 729000
InitMesh: Mesh cutoff (required, used) =   200.000   223.865 Ry
New grid distribution [1]: sub = 2

        iscf     Eharris(eV)        E_KS(eV)     FreeEng(eV)     dDmax    Ef(eV) dHmax(eV)
   scf:    1     -894.574487     -896.637525     -896.643053  0.457180 -6.590761  2.782823
   scf:    2     -879.995188     -891.941984     -891.941984  1.576246 -4.993043 10.971485
   scf:    3     -898.685890     -896.295110     -896.351086  0.706875 -6.306445  3.381279
   scf:    4     -895.306762     -896.763642     -896.775522  0.848646 -6.540733  2.205836
   scf:    5     -896.955718     -896.865239     -896.886682  0.040003 -6.498674  1.689594
   scf:    6     -897.088546     -897.052968     -897.109012  0.262005 -6.414931  0.213821
   scf:    7     -895.409134     -896.521609     -896.580887  0.568609 -6.312867  2.348650
   scf:    8     -896.804515     -896.715877     -896.782276  0.193885 -6.373745  1.965413
   scf:    9     -897.057303     -897.063283     -897.121847  0.419577 -6.420481  0.107046
   scf:   10     -897.037743     -897.055401     -897.117977  0.063079 -6.421908  0.264805
   scf:   11     -897.049694     -897.061819     -897.118337  0.090226 -6.435682  0.213377
   scf:   12     -897.064229     -897.063731     -897.122389  0.027452 -6.433543  0.088523
   scf:   13     -897.063627     -897.063718     -897.122909  0.007216 -6.434591  0.067681
   scf:   14     -897.063736     -897.063729     -897.122806  0.001576 -6.434289  0.072896
   scf:   15     -897.060966     -897.062784     -897.123445  0.022999 -6.436385  0.015561
   scf:   16     -897.063369     -897.063093     -897.123470  0.004291 -6.436454  0.006129
   scf:   17     -897.062896     -897.062997     -897.123471  0.001429 -6.436610  0.004842
   scf:   18     -897.063120     -897.063059     -897.123473  0.000922 -6.436703  0.004653
   scf:   19     -897.063138     -897.063100     -897.123477  0.000592 -6.436827  0.001170
   scf:   20     -897.063078     -897.063089     -897.123478  0.000161 -6.436798  0.000972

SCF Convergence by DM+H criterion
max |DM_out - DM_in|         :     0.0001610159
max |H_out - H_in|      (eV) :     0.0009715495
SCF cycle converged after 20 iterations

Using DM_out to compute the final energy and forces
No. of atoms with KB's overlaping orbs in proc 0. Max # of overlaps:       4      26

siesta: E_KS(eV) =             -897.0631

siesta: Atomic forces (eV/Ang):
----------------------------------------
   Tot    0.006353    0.000336   -0.002197
----------------------------------------
   Max    5.479803
   Res    2.375302    sqrt( Sum f_i^2 / 3N )
----------------------------------------
   Max    5.479803    constrained

Stress tensor Voigt[x,y,z,yz,xz,xy] (kbar):      -26.32       -1.87       -1.51       -0.15        1.13        3.24
(Free)E + p*V (eV/cell)     -890.9428
Target enthalpy (eV/cell)     -897.1235

siesta: Stress tensor (static) (eV/Ang**3):
        -0.008334    0.002175    0.000628
         0.002175   -0.000895    0.000009
         0.000629    0.000009   -0.000776

siesta: Pressure (static):          5.34372634  kBar

siesta: Stress tensor (total) (eV/Ang**3):
        -0.016430    0.002024    0.000705
         0.002024   -0.001169   -0.000091
         0.000705   -0.000091   -0.000943

siesta: Pressure (total):          9.90256118  kBar

siesta: Temp_ion =    9574.397 K

                     ====================================
                        Begin MD step =      6
                     ====================================

outcell: Unit cell vectors (Ang):
       10.000004    0.000000    0.000000
        0.000000   10.000004    0.000000
        0.000000    0.000000   10.000004

outcell: Cell vector modules (Ang)   :   10.000004   10.000004   10.000004
outcell: Cell angles (23,13,12) (deg):     90.0000     90.0000     90.0000
outcell: Cell volume (Ang**3)        :   1000.0012
<dSpData1D:S at geom step 6
  <sparsity:sparsity for geom step 6
    nrows_g=26 nrows=26 sparsity=1.0000 nnzs=676, refcount: 7>
  <dData1D:(new from dSpData1D) n=676, refcount: 1>
refcount: 1>
new_DM -- step:     6
Re-using DM from previous geometries...
Number of DMs in history: 1
 DM extrapolation coefficients: 
1   1.00000
New DM after history re-use:
<dSpData2D:SpM extrapolated using coords
  <sparsity:sparsity for geom step 6
    nrows_g=26 nrows=26 sparsity=1.0000 nnzs=676, refcount: 9>
  <dData2D:(temp array for extrapolation) n=676 m=1, refcount: 1>
refcount: 1>
Note: For starting DM, Qtot, Tr[D*S] =         14.00000000         13.97992883
No. of atoms with KB's overlaping orbs in proc 0. Max # of overlaps:       4      26

InitMesh: MESH = 90 x 90 x 90 = 729000
InitMesh: Mesh cutoff (required, used) =   200.000   223.865 Ry
New grid distribution [1]: sub = 2

        iscf     Eharris(eV)        E_KS(eV)     FreeEng(eV)     dDmax    Ef(eV) dHmax(eV)
   scf:    1     -891.740494     -895.453244     -895.453699  0.374470 -6.377740  4.826262
   scf:    2     -857.817205     -885.013369     -885.013369  1.758228 -3.047441 17.890853
   scf:    3     -898.784314     -893.259923     -893.269043  0.551255 -5.823330  7.759167
   scf:    4     -892.028810     -895.919563     -895.921150  1.197174 -6.314897  3.729067
   scf:    5     -896.742608     -896.520732     -896.534623  0.155212 -6.173352  0.960541
   scf:    6     -896.008992     -896.312808     -896.315988  0.078506 -6.242896  2.405758
   scf:    7     -892.240619     -895.381512     -895.391589  0.891052 -6.266908  2.648477
   scf:    8     -895.506513     -895.444983     -895.456250  0.025701 -6.263100  2.466581
   scf:    9     -892.316066     -894.646126     -894.692824  0.667480 -5.869270  5.841408
   scf:   10     -893.234648     -894.114463     -894.153693  0.357231 -5.973596  6.294727
   scf:   11     -896.096767     -896.563478     -896.585116  1.122574 -6.106248  0.419262
   scf:   12     -896.566693     -896.572647     -896.603378  0.067982 -6.127808  0.637640
   scf:   13     -894.491837     -895.970321     -896.039531  0.575335 -6.057482  3.229528
   scf:   14     -895.071514     -895.549244     -895.616755  0.117662 -5.994412  4.268454
   scf:   15     -896.926041     -896.442401     -896.505821  0.363061 -6.093603  1.568901
   scf:   16     -896.489177     -896.583348     -896.621302  0.290550 -6.125220  0.463761
   scf:   17     -896.262714     -896.458868     -896.489727  0.060071 -6.222128  1.709533
   scf:   18     -891.695710     -895.210940     -895.273335  0.798401 -5.994751  4.811980
   scf:   19     -897.027919     -896.499154     -896.561295  0.481615 -6.144827  1.108801
   scf:   20     -896.587975     -896.593903     -896.640359  0.200037 -6.155428  0.173694
   scf:   21     -896.592049     -896.594147     -896.641888  0.015773 -6.145580  0.051637
   scf:   22     -896.594046     -896.594152     -896.642112  0.004472 -6.147812  0.019590
   scf:   23     -896.594870     -896.594541     -896.641895  0.004612 -6.145244  0.032926
   scf:   24     -896.594057     -896.594324     -896.641764  0.001995 -6.142931  0.063677
   scf:   25     -896.593235     -896.593966     -896.642143  0.007091 -6.150950  0.024855
   scf:   26     -896.593192     -896.593599     -896.642190  0.003967 -6.150857  0.010101
   scf:   27     -896.593644     -896.593622     -896.642191  0.000295 -6.150934  0.009898
   scf:   28     -896.593643     -896.593637     -896.642190  0.002078 -6.151093  0.008129
   scf:   29     -896.593389     -896.593515     -896.642186  0.000995 -6.152165  0.006685
   scf:   30     -896.593376     -896.593446     -896.642187  0.000723 -6.152742  0.005189
   scf:   31     -896.593950     -896.593705     -896.642198  0.002553 -6.154184  0.005695
   scf:   32     -896.593706     -896.593706     -896.642199  0.000025 -6.154296  0.005540
   scf:   33     -896.593464     -896.593586     -896.642202  0.001068 -6.156261  0.001294
   scf:   34     -896.593586     -896.593586     -896.642202  0.000006 -6.156284  0.001271
   scf:   35     -896.593601     -896.593593     -896.642203  0.000146 -6.156708  0.000999

SCF Convergence by DM+H criterion
max |DM_out - DM_in|         :     0.0001463085
max |H_out - H_in|      (eV) :     0.0009988440
SCF cycle converged after 35 iterations

Using DM_out to compute the final energy and forces
No. of atoms with KB's overlaping orbs in proc 0. Max # of overlaps:       4      26

siesta: E_KS(eV) =             -896.5936

siesta: Atomic forces (eV/Ang):
----------------------------------------
   Tot    0.001546   -0.000070   -0.003239
----------------------------------------
   Max    5.659140
   Res    2.749810    sqrt( Sum f_i^2 / 3N )
----------------------------------------
   Max    5.659140    constrained

Stress tensor Voigt[x,y,z,yz,xz,xy] (kbar):      -27.68       -3.39       -1.54        0.88       -0.11        2.73
(Free)E + p*V (eV/cell)     -889.8585
Target enthalpy (eV/cell)     -896.6422

siesta: Stress tensor (static) (eV/Ang**3):
        -0.010140    0.002094   -0.000171
         0.002094   -0.001857    0.000522
        -0.000171    0.000522   -0.000928

siesta: Pressure (static):          6.90298944  kBar

siesta: Stress tensor (total) (eV/Ang**3):
        -0.017278    0.001704   -0.000069
         0.001704   -0.002114    0.000550
        -0.000069    0.000550   -0.000959

siesta: Pressure (total):         10.86864908  kBar

siesta: Temp_ion =    8258.185 K

                     ====================================
                        Begin MD step =      7
                     ====================================

outcell: Unit cell vectors (Ang):
       10.000004    0.000000    0.000000
        0.000000   10.000004    0.000000
        0.000000    0.000000   10.000004

outcell: Cell vector modules (Ang)   :   10.000004   10.000004   10.000004
outcell: Cell angles (23,13,12) (deg):     90.0000     90.0000     90.0000
outcell: Cell volume (Ang**3)        :   1000.0012
<dSpData1D:S at geom step 7
  <sparsity:sparsity for geom step 7
    nrows_g=26 nrows=26 sparsity=1.0000 nnzs=676, refcount: 7>
  <dData1D:(new from dSpData1D) n=676, refcount: 1>
refcount: 1>
new_DM -- step:     7
Re-using DM from previous geometries...
Number of DMs in history: 1
 DM extrapolation coefficients: 
1   1.00000
New DM after history re-use:
<dSpData2D:SpM extrapolated using coords
  <sparsity:sparsity for geom step 7
    nrows_g=26 nrows=26 sparsity=1.0000 nnzs=676, refcount: 9>
  <dData2D:(temp array for extrapolation) n=676 m=1, refcount: 1>
refcount: 1>
No. of atoms with KB's overlaping orbs in proc 0. Max # of overlaps:       4      26

InitMesh: MESH = 90 x 90 x 90 = 729000
InitMesh: Mesh cutoff (required, used) =   200.000   223.865 Ry
New grid distribution [1]: sub = 2

        iscf     Eharris(eV)        E_KS(eV)     FreeEng(eV)     dDmax    Ef(eV) dHmax(eV)
   scf:    1     -888.923112     -894.086410     -894.086483  0.239070 -6.138980  6.305134
   scf:    2     -838.494413     -879.095337     -879.095352  1.777229 -1.483641 22.238781
   scf:    3     -898.226029     -890.092242     -890.092487  0.450721 -5.415476 10.793985
   scf:    4     -889.769697     -895.152127     -895.152543  1.274047 -6.073651  4.276346
   scf:    5     -883.520768     -892.762931     -892.766055  0.909933 -5.729430  7.436774
   scf:    6     -895.523335     -894.267281     -894.271229  0.243809 -5.827966  5.154467
   scf:    7     -896.459417     -895.754383     -895.772776  0.512791 -5.770860  2.221209
   scf:    8     -895.612640     -895.928658     -895.934758  0.235173 -5.857547  0.950157
   scf:    9     -895.152917     -895.621826     -895.623585  0.102921 -5.948865  2.778603
   scf:   10     -896.055028     -895.874362     -895.879436  0.073218 -5.885501  1.568103
   scf:   11     -895.768330     -895.966929     -895.986763  0.190334 -5.826229  0.688520
   scf:   12     -895.284749     -895.814373     -895.823715  0.210741 -5.890635  1.841062
   scf:   13     -895.885289     -895.985554     -896.021167  0.218574 -5.846760  0.403925
   scf:   14     -895.948400     -895.968783     -896.007074  0.029263 -5.843405  0.662903
   scf:   15     -895.918746     -895.984908     -896.006508  0.140988 -5.860035  0.602545
   scf:   16     -895.933768     -895.985048     -896.020829  0.105619 -5.840739  0.419531
   scf:   17     -895.869509     -895.967806     -895.985220  0.131155 -5.870016  0.870387
   scf:   18     -895.960526     -895.964255     -895.979830  0.007267 -5.875059  0.934055
   scf:   19     -896.013106     -895.996937     -896.020314  0.057880 -5.865386  0.361630
   scf:   20     -895.906448     -895.961171     -895.974973  0.062056 -5.882764  1.000346
   scf:   21     -896.005619     -895.999735     -896.026342  0.082587 -5.862216  0.168467
   scf:   22     -895.995687     -895.998637     -896.028427  0.021341 -5.855655  0.038119
   scf:   23     -895.999608     -895.999215     -896.028211  0.007040 -5.856352  0.049122
   scf:   24     -895.988810     -895.996492     -896.020891  0.031320 -5.860723  0.349136
   scf:   25     -895.975144     -895.987408     -896.007320  0.029736 -5.872122  0.609916
   scf:   26     -896.004046     -895.997160     -896.019991  0.023112 -5.869907  0.372123
   scf:   27     -895.998420     -895.999975     -896.027827  0.032001 -5.862024  0.069534
   scf:   28     -895.999488     -895.999771     -896.028142  0.003749 -5.862025  0.035056
   scf:   29     -895.998823     -895.999332     -896.028320  0.004231 -5.861552  0.028698
   scf:   30     -895.997788     -895.999094     -896.027101  0.011244 -5.871350  0.150448
   scf:   31     -895.996837     -895.998348     -896.028417  0.013893 -5.870407  0.027601
   scf:   32     -895.997393     -895.997900     -896.028494  0.003820 -5.871408  0.012158
   scf:   33     -895.998003     -895.997960     -896.028526  0.002661 -5.876931  0.006701
   scf:   34     -895.997815     -895.997890     -896.028530  0.001012 -5.877190  0.000944
   scf:   35     -895.997921     -895.997905     -896.028530  0.000169 -5.877264  0.000715

SCF Convergence by DM+H criterion
max |DM_out - DM_in|         :     0.0001689636
max |H_out - H_in|      (eV) :     0.0007154908
SCF cycle converged after 35 iterations

Using DM_out to compute the final energy and forces
No. of atoms with KB's overlaping orbs in proc 0. Max # of overlaps:       4      26

siesta: E_KS(eV) =             -895.9979

siesta: Atomic forces (eV/Ang):
----------------------------------------
   Tot    0.006181    0.001142   -0.004029
----------------------------------------
   Max    7.601256
   Res    4.299182    sqrt( Sum f_i^2 / 3N )
----------------------------------------
   Max    7.601256    constrained

Stress tensor Voigt[x,y,z,yz,xz,xy] (kbar):      -28.55       -5.78       -2.94        2.54       -1.82        2.95
(Free)E + p*V (eV/cell)     -888.2750
Target enthalpy (eV/cell)     -896.0285

siesta: Stress tensor (static) (eV/Ang**3):
        -0.011874    0.002457   -0.001566
         0.002457   -0.003233    0.001424
        -0.001567    0.001424   -0.001749

siesta: Pressure (static):          9.00207318  kBar

siesta: Stress tensor (total) (eV/Ang**3):
        -0.017820    0.001840   -0.001136
         0.001839   -0.003607    0.001587
        -0.001136    0.001587   -0.001834

siesta: Pressure (total):         12.42256539  kBar

siesta: Temp_ion =    6845.998 K

                     ====================================
                        Begin MD step =      8
                     ====================================

outcell: Unit cell vectors (Ang):
       10.000004    0.000000    0.000000
        0.000000   10.000004    0.000000
        0.000000    0.000000   10.000004

outcell: Cell vector modules (Ang)   :   10.000004   10.000004   10.000004
outcell: Cell angles (23,13,12) (deg):     90.0000     90.0000     90.0000
outcell: Cell volume (Ang**3)        :   1000.0012
<dSpData1D:S at geom step 8
  <sparsity:sparsity for geom step 8
    nrows_g=26 nrows=26 sparsity=1.0000 nnzs=676, refcount: 7>
  <dData1D:(new from dSpData1D) n=676, refcount: 1>
refcount: 1>
new_DM -- step:     8
Re-using DM from previous geometries...
Number of DMs in history: 1
 DM extrapolation coefficients: 
1   1.00000
New DM after history re-use:
<dSpData2D:SpM extrapolated using coords
  <sparsity:sparsity for geom step 8
    nrows_g=26 nrows=26 sparsity=1.0000 nnzs=676, refcount: 9>
  <dData2D:(temp array for extrapolation) n=676 m=1, refcount: 1>
refcount: 1>
Note: For starting DM, Qtot, Tr[D*S] =         14.00000000         13.97936382
No. of atoms with KB's overlaping orbs in proc 0. Max # of overlaps:       4      26

InitMesh: MESH = 90 x 90 x 90 = 729000
InitMesh: Mesh cutoff (required, used) =   200.000   223.865 Ry
New grid distribution [1]: sub = 2

        iscf     Eharris(eV)        E_KS(eV)     FreeEng(eV)     dDmax    Ef(eV) dHmax(eV)
   scf:    1     -893.179218     -895.411337     -895.411427  0.164173 -5.704554  4.183593
   scf:    2     -844.394219     -880.314770     -880.314854  1.710861 -2.888037 19.839723
   scf:    3     -900.103723     -893.089259     -893.091779  0.909305 -5.411944  7.290295
   scf:    4     -895.994804     -894.690657     -894.693273  0.242821 -5.489049  4.812116
   scf:    5     -889.571197     -892.401988     -892.404699  0.337254 -5.380391  8.187691
   scf:    6     -892.199506     -892.301079     -892.303631  0.012749 -5.374214  8.306053
   scf:    7     -894.998852     -893.736602     -893.739289  0.200338 -5.443697  6.395781
   scf:    8     -891.972000     -894.867916     -894.870570  0.992987 -5.633829  3.185725
   scf:    9     -887.459699     -892.604976     -892.604977  0.415768 -5.853272  7.431990
   scf:   10     -896.912864     -895.082522     -895.083406  0.289720 -5.695899  4.152239
   scf:   11     -892.320320     -893.811398     -893.811443  0.154510 -5.777191  6.104832
   scf:   12     -896.598087     -896.094831     -896.118778  0.437924 -5.574162  0.727938
   scf:   13     -895.520437     -895.867668     -895.880110  0.124113 -5.607940  1.717253
   scf:   14     -894.026212     -895.063376     -895.066225  0.269175 -5.671456  3.209986
   scf:   15     -895.592005     -895.336888     -895.343595  0.093316 -5.649220  2.852289
   scf:   16     -890.475479     -894.829487     -894.841377  0.730088 -5.534938  4.673333
   scf:   17     -894.968027     -894.899226     -894.912327  0.011570 -5.537312  4.543933
   scf:   18     -895.029609     -894.964871     -894.979876  0.011027 -5.538896  4.427199
   scf:   19     -894.662327     -894.815812     -894.832650  0.032091 -5.533846  4.721368
   scf:   20     -895.626837     -895.242178     -895.267818  0.088429 -5.542066  3.947630
   scf:   21     -895.927949     -896.115389     -896.143009  0.438686 -5.586993  0.647405
   scf:   22     -895.873962     -896.008706     -896.038375  0.132331 -5.573879  1.019900
   scf:   23     -896.236543     -896.161576     -896.177019  0.237945 -5.591107  0.379240
   scf:   24     -896.100150     -896.156049     -896.167782  0.090353 -5.598312  0.455685
   scf:   25     -895.936902     -896.111927     -896.128531  0.168135 -5.566892  0.709449
   scf:   26     -896.143715     -896.168941     -896.184560  0.116191 -5.533932  0.314126
   scf:   27     -896.176842     -896.174741     -896.188947  0.026736 -5.534657  0.057282
   scf:   28     -896.176502     -896.175642     -896.189173  0.005166 -5.536563  0.055530
   scf:   29     -896.187924     -896.182975     -896.188628  0.024545 -5.554459  0.178302
   scf:   30     -896.182145     -896.182808     -896.190018  0.005467 -5.549996  0.071773
   scf:   31     -896.181638     -896.182246     -896.190211  0.002675 -5.547316  0.038479
   scf:   32     -896.183525     -896.183056     -896.189489  0.008692 -5.549438  0.127527
   scf:   33     -896.179395     -896.181629     -896.190277  0.012671 -5.546879  0.013385
   scf:   34     -896.182350     -896.181995     -896.190289  0.002169 -5.546540  0.011983
   scf:   35     -896.181789     -896.181899     -896.190290  0.001115 -5.546170  0.015475
   scf:   36     -896.183009     -896.182481     -896.190272  0.004021 -5.548752  0.021490
   scf:   37     -896.182094     -896.182294     -896.190297  0.001444 -5.548304  0.007697
   scf:   38     -896.181689     -896.181997     -896.190299  0.002185 -5.552321  0.005801
   scf:   39     -896.181988     -896.182202     -896.189971  0.007939 -5.552830  0.087228
   scf:   40     -896.180370     -896.181453     -896.190332  0.006855 -5.550143  0.002035
   scf:   41     -896.181495     -896.181474     -896.190333  0.000146 -5.550075  0.001766
   scf:   42     -896.181311     -896.181393     -896.190332  0.000576 -5.549959  0.005555
   scf:   43     -896.181574     -896.181484     -896.190334  0.000258 -5.550067  0.000813

SCF Convergence by DM+H criterion
max |DM_out - DM_in|         :     0.0002581336
max |H_out - H_in|      (eV) :     0.0008134121
SCF cycle converged after 43 iterations

Using DM_out to compute the final energy and forces
No. of atoms with KB's overlaping orbs in proc 0. Max # of overlaps:       4      26

siesta: E_KS(eV) =             -896.1815

siesta: Atomic forces (eV/Ang):
----------------------------------------
   Tot   -0.003878   -0.000641   -0.007574
----------------------------------------
   Max    6.884904
   Res    4.036866    sqrt( Sum f_i^2 / 3N )
----------------------------------------
   Max    6.884904    constrained

Stress tensor Voigt[x,y,z,yz,xz,xy] (kbar):      -22.41       -7.53       -4.74        3.93       -1.62        0.82
(Free)E + p*V (eV/cell)     -888.9751
Target enthalpy (eV/cell)     -896.1903

siesta: Stress tensor (static) (eV/Ang**3):
        -0.010003    0.001302   -0.001895
         0.001302   -0.003888    0.001924
        -0.001894    0.001923   -0.002446

siesta: Pressure (static):          8.72456417  kBar

siesta: Stress tensor (total) (eV/Ang**3):
        -0.013987    0.000512   -0.001014
         0.000512   -0.004697    0.002454
        -0.001013    0.002454   -0.002962

siesta: Pressure (total):         11.56013667  kBar

siesta: Temp_ion =    7222.447 K

                     ====================================
                        Begin MD step =      9
                     ====================================

outcell: Unit cell vectors (Ang):
       10.000004    0.000000    0.000000
        0.000000   10.000004    0.000000
        0.000000    0.000000   10.000004

outcell: Cell vector modules (Ang)   :   10.000004   10.000004   10.000004
outcell: Cell angles (23,13,12) (deg):     90.0000     90.0000     90.0000
outcell: Cell volume (Ang**3)        :   1000.0012
<dSpData1D:S at geom step 9
  <sparsity:sparsity for geom step 9
    nrows_g=26 nrows=26 sparsity=1.0000 nnzs=676, refcount: 7>
  <dData1D:(new from dSpData1D) n=676, refcount: 1>
refcount: 1>
new_DM -- step:     9
Re-using DM from previous geometries...
Number of DMs in history: 1
 DM extrapolation coefficients: 
1   1.00000
New DM after history re-use:
<dSpData2D:SpM extrapolated using coords
  <sparsity:sparsity for geom step 9
    nrows_g=26 nrows=26 sparsity=1.0000 nnzs=676, refcount: 9>
  <dData2D:(temp array for extrapolation) n=676 m=1, refcount: 1>
refcount: 1>
Note: For starting DM, Qtot, Tr[D*S] =         14.00000000         13.95959273
No. of atoms with KB's overlaping orbs in proc 0. Max # of overlaps:       4      26

InitMesh: MESH = 90 x 90 x 90 = 729000
InitMesh: Mesh cutoff (required, used) =   200.000   223.865 Ry
New grid distribution [1]: sub = 2

        iscf     Eharris(eV)        E_KS(eV)     FreeEng(eV)     dDmax    Ef(eV) dHmax(eV)
   scf:    1     -896.376007     -896.670149     -896.670470  0.145440 -5.041238  2.142459
   scf:    2     -860.171670     -884.724230     -884.736905  1.594157 -5.074417 14.675399
   scf:    3     -896.470388     -896.777935     -896.778568  1.594047 -5.065762  1.373423
   scf:    4     -896.861298     -896.847893     -896.849975  0.042100 -5.104307  0.288680
   scf:    5     -896.842124     -896.847842     -896.850782  0.031430 -5.131596  0.394929
   scf:    6     -896.859576     -896.859005     -896.860978  0.032483 -5.150862  0.063313
   scf:    7     -896.855437     -896.857637     -896.859824  0.013803 -5.168991  0.090604
   scf:    8     -896.857620     -896.858653     -896.860792  0.027917 -5.163469  0.115946
   scf:    9     -896.859186     -896.858964     -896.861173  0.002141 -5.161438  0.072972
   scf:   10     -896.859238     -896.859347     -896.861632  0.008364 -5.160123  0.013351
   scf:   11     -896.859171     -896.859263     -896.861623  0.000699 -5.161317  0.021518
   scf:   12     -896.859353     -896.859319     -896.861648  0.001381 -5.161615  0.000823
   scf:   13     -896.859320     -896.859319     -896.861648  0.000025 -5.161628  0.000761

SCF Convergence by DM+H criterion
max |DM_out - DM_in|         :     0.0000251660
max |H_out - H_in|      (eV) :     0.0007609358
SCF cycle converged after 13 iterations

Using DM_out to compute the final energy and forces
No. of atoms with KB's overlaping orbs in proc 0. Max # of overlaps:       4      26

siesta: E_KS(eV) =             -896.8593

siesta: Atomic forces (eV/Ang):
----------------------------------------
   Tot    0.001139   -0.006595   -0.014553
----------------------------------------
   Max    4.495661
   Res    2.077723    sqrt( Sum f_i^2 / 3N )
----------------------------------------
   Max    4.495661    constrained

Stress tensor Voigt[x,y,z,yz,xz,xy] (kbar):      -14.48       -6.47       -4.50        2.96        0.54       -3.75
(Free)E + p*V (eV/cell)     -891.5670
Target enthalpy (eV/cell)     -896.8616

siesta: Stress tensor (static) (eV/Ang**3):
        -0.006818   -0.001756   -0.000598
        -0.001756   -0.002323    0.000430
        -0.000597    0.000430   -0.001142

siesta: Pressure (static):          5.49144706  kBar

siesta: Stress tensor (total) (eV/Ang**3):
        -0.009035   -0.002342    0.000336
        -0.002342   -0.004041    0.001845
         0.000336    0.001845   -0.002808

siesta: Pressure (total):          8.48294259  kBar

siesta: Temp_ion =    8689.321 K

                     ====================================
                        Begin MD step =     10
                     ====================================

outcell: Unit cell vectors (Ang):
       10.000004    0.000000    0.000000
        0.000000   10.000004    0.000000
        0.000000    0.000000   10.000004

outcell: Cell vector modules (Ang)   :   10.000004   10.000004   10.000004
outcell: Cell angles (23,13,12) (deg):     90.0000     90.0000     90.0000
outcell: Cell volume (Ang**3)        :   1000.0012
<dSpData1D:S at geom step 10
  <sparsity:sparsity for geom step 10
    nrows_g=26 nrows=26 sparsity=1.0000 nnzs=676, refcount: 7>
  <dData1D:(new from dSpData1D) n=676, refcount: 1>
refcount: 1>
new_DM -- step:    10
Re-using DM from previous geometries...
Number of DMs in history: 1
 DM extrapolation coefficients: 
1   1.00000
New DM after history re-use:
<dSpData2D:SpM extrapolated using coords
  <sparsity:sparsity for geom step 10
    nrows_g=26 nrows=26 sparsity=1.0000 nnzs=676, refcount: 9>
  <dData2D:(temp array for extrapolation) n=676 m=1, refcount: 1>
refcount: 1>
Note: For starting DM, Qtot, Tr[D*S] =         14.00000000         13.93439881
No. of atoms with KB's overlaping orbs in proc 0. Max # of overlaps:       4      26

InitMesh: MESH = 90 x 90 x 90 = 729000
InitMesh: Mesh cutoff (required, used) =   200.000   223.865 Ry
New grid distribution [1]: sub = 2

        iscf     Eharris(eV)        E_KS(eV)     FreeEng(eV)     dDmax    Ef(eV) dHmax(eV)
   scf:    1     -895.757869     -896.281870     -896.287547  0.170841 -4.561292  2.552711
   scf:    2     -868.303516     -887.602278     -887.602278  0.900296 -5.633723 12.691604
   scf:    3     -898.924172     -896.549290     -896.549953  0.643471 -4.817512  1.361805
   scf:    4     -895.723372     -896.199532     -896.199656  0.109318 -4.914898  2.935693
   scf:    5     -896.813488     -896.556363     -896.557352  0.100837 -4.872145  1.457882
   scf:    6     -896.651150     -896.691968     -896.696297  0.139338 -4.809421  0.404027
   scf:    7     -890.301059     -894.463226     -894.478865  0.505061 -4.668944  6.530429
   scf:    8     -896.162018     -896.656663     -896.658757  0.538502 -4.861087  0.765263
   scf:    9     -896.535054     -896.665104     -896.669897  0.132724 -4.843947  0.695468
   scf:   10     -896.699837     -896.684393     -896.688855  0.021864 -4.850352  0.452309
   scf:   11     -896.690051     -896.698357     -896.701999  0.059519 -4.860712  0.126889
   scf:   12     -896.698733     -896.699420     -896.703366  0.014783 -4.856588  0.044242
   scf:   13     -896.699264     -896.699348     -896.703310  0.000802 -4.856424  0.060092
   scf:   14     -896.699596     -896.699537     -896.703409  0.003557 -4.856259  0.012267
   scf:   15     -896.699647     -896.699595     -896.703401  0.000689 -4.856535  0.012150
   scf:   16     -896.700070     -896.699903     -896.703384  0.003728 -4.861186  0.038798
   scf:   17     -896.700293     -896.700128     -896.703452  0.002252 -4.862882  0.001289
   scf:   18     -896.700132     -896.700130     -896.703452  0.000035 -4.862915  0.001165
   scf:   19     -896.700146     -896.700138     -896.703452  0.000125 -4.863017  0.000908

SCF Convergence by DM+H criterion
max |DM_out - DM_in|         :     0.0001253766
max |H_out - H_in|      (eV) :     0.0009077370
SCF cycle converged after 19 iterations

Using DM_out to compute the final energy and forces
No. of atoms with KB's overlaping orbs in proc 0. Max # of overlaps:       4      26

siesta: E_KS(eV) =             -896.7001

siesta: Atomic forces (eV/Ang):
----------------------------------------
   Tot    0.004974   -0.006628   -0.017771
----------------------------------------
   Max    5.030541
   Res    2.266874    sqrt( Sum f_i^2 / 3N )
----------------------------------------
   Max    5.030541    constrained

Stress tensor Voigt[x,y,z,yz,xz,xy] (kbar):      -10.62       -5.11       -3.35        1.51        0.91       -5.66
(Free)E + p*V (eV/cell)     -892.7331
Target enthalpy (eV/cell)     -896.7035

siesta: Stress tensor (static) (eV/Ang**3):
        -0.005197   -0.003369   -0.000045
        -0.003369   -0.000765   -0.001236
        -0.000045   -0.001235    0.000791

siesta: Pressure (static):          2.76219679  kBar

siesta: Stress tensor (total) (eV/Ang**3):
        -0.006628   -0.003534    0.000568
        -0.003534   -0.003192    0.000942
         0.000568    0.000943   -0.002091

siesta: Pressure (total):          6.36126310  kBar

siesta: Temp_ion =    8415.442 K

                     ====================================
                        Begin MD step =     11
                     ====================================

outcell: Unit cell vectors (Ang):
       10.000004    0.000000    0.000000
        0.000000   10.000004    0.000000
        0.000000    0.000000   10.000004

outcell: Cell vector modules (Ang)   :   10.000004   10.000004   10.000004
outcell: Cell angles (23,13,12) (deg):     90.0000     90.0000     90.0000
outcell: Cell volume (Ang**3)        :   1000.0012
<dSpData1D:S at geom step 11
  <sparsity:sparsity for geom step 11
    nrows_g=26 nrows=26 sparsity=1.0000 nnzs=676, refcount: 7>
  <dData1D:(new from dSpData1D) n=676, refcount: 1>
refcount: 1>
new_DM -- step:    11
Re-using DM from previous geometries...
Number of DMs in history: 1
 DM extrapolation coefficients: 
1   1.00000
New DM after history re-use:
<dSpData2D:SpM extrapolated using coords
  <sparsity:sparsity for geom step 11
    nrows_g=26 nrows=26 sparsity=1.0000 nnzs=676, refcount: 9>
  <dData2D:(temp array for extrapolation) n=676 m=1, refcount: 1>
refcount: 1>
Note: For starting DM, Qtot, Tr[D*S] =         14.00000000         13.92103338
No. of atoms with KB's overlaping orbs in proc 0. Max # of overlaps:       4      26

InitMesh: MESH = 90 x 90 x 90 = 729000
InitMesh: Mesh cutoff (required, used) =   200.000   223.865 Ry
New grid distribution [1]: sub = 2

        iscf     Eharris(eV)        E_KS(eV)     FreeEng(eV)     dDmax    Ef(eV) dHmax(eV)
   scf:    1     -875.171918     -889.075788     -889.115719  1.305699 -4.396601 11.841614
   scf:    2     -804.268382     -869.651473     -869.651473  1.503870 -3.815126 31.209466
   scf:    3     -904.810900     -889.559604     -889.559604  0.491184 -5.023204 13.141852
   scf:    4     -893.280940     -891.492890     -891.492890  0.085167 -5.062635 10.698921
   scf:    5     -891.372207     -891.432643     -891.432643  0.003231 -5.071887 10.781706
   scf:    6     -870.567413     -890.233895     -890.258878  1.162311 -4.715273 10.519941
   scf:    7     -897.600075     -894.701634     -894.729880  0.639505 -4.782605  5.065657
   scf:    8     -896.396805     -895.697203     -895.717799  0.229520 -4.795287  2.701519
   scf:    9     -895.545025     -896.031446     -896.033149  0.236449 -4.857279  1.436809
   scf:   10     -895.248718     -895.901646     -895.920489  0.179001 -4.793417  1.925696
   scf:   11     -893.829879     -895.037426     -895.076169  0.288528 -4.771060  4.472612
   scf:   12     -895.824684     -896.092600     -896.101383  0.429767 -4.836787  0.736758
   scf:   13     -893.643629     -895.346614     -895.398693  0.422817 -4.767877  3.772381
   scf:   14     -896.315173     -895.931106     -895.968450  0.212072 -4.790192  1.763366
   scf:   15     -894.927054     -895.498317     -895.557867  0.186541 -4.781076  3.244322
   scf:   16     -895.525706     -895.516500     -895.572052  0.067424 -4.780739  3.271697
   scf:   17     -895.969231     -895.758343     -895.806983  0.088768 -4.784909  2.498732
   scf:   18     -896.192354     -896.099371     -896.121415  0.236534 -4.806065  0.256775
   scf:   19     -895.764797     -895.970517     -896.009631  0.127639 -4.790775  1.524049
   scf:   20     -896.153462     -896.087282     -896.113049  0.103015 -4.804560  0.491661
   scf:   21     -896.073869     -896.081059     -896.107403  0.013656 -4.803470  0.611596
   scf:   22     -896.109523     -896.110329     -896.123627  0.071932 -4.820901  0.213559
   scf:   23     -896.108641     -896.109615     -896.121866  0.004993 -4.822397  0.291761
   scf:   24     -896.104939     -896.107561     -896.118498  0.004486 -4.822960  0.403435
   scf:   25     -896.094368     -896.106741     -896.125197  0.042536 -4.808239  0.114113
   scf:   26     -896.106973     -896.106891     -896.125509  0.004964 -4.808383  0.091086
   scf:   27     -896.109676     -896.108435     -896.125932  0.007029 -4.810033  0.008977
   scf:   28     -896.107793     -896.108124     -896.125886  0.001722 -4.809529  0.030387
   scf:   29     -896.109362     -896.108771     -896.125943  0.003261 -4.810037  0.006680
   scf:   30     -896.108462     -896.108619     -896.125940  0.000952 -4.809145  0.006603
   scf:   31     -896.108803     -896.108712     -896.125943  0.000447 -4.809025  0.002868
   scf:   32     -896.109019     -896.108866     -896.125944  0.000536 -4.808882  0.004087
   scf:   33     -896.108876     -896.108871     -896.125944  0.000166 -4.808834  0.001924
   scf:   34     -896.108863     -896.108867     -896.125946  0.000418 -4.808799  0.001810
   scf:   35     -896.108839     -896.108853     -896.125946  0.000138 -4.808762  0.001638
   scf:   36     -896.108809     -896.108831     -896.125947  0.000308 -4.808410  0.001316
   scf:   37     -896.108856     -896.108844     -896.125947  0.000077 -4.808290  0.001526
   scf:   38     -896.108862     -896.108853     -896.125948  0.000472 -4.808195  0.001076
   scf:   39     -896.108883     -896.108868     -896.125948  0.000086 -4.808192  0.000955

SCF Convergence by DM+H criterion
max |DM_out - DM_in|         :     0.0000855969
max |H_out - H_in|      (eV) :     0.0009548221
SCF cycle converged after 39 iterations

Using DM_out to compute the final energy and forces
No. of atoms with KB's overlaping orbs in proc 0. Max # of overlaps:       4      26

siesta: E_KS(eV) =             -896.1089

siesta: Atomic forces (eV/Ang):
----------------------------------------
   Tot    0.000376   -0.002896   -0.012181
----------------------------------------
   Max    4.606660
   Res    2.324700    sqrt( Sum f_i^2 / 3N )
----------------------------------------
   Max    4.606660    constrained

Stress tensor Voigt[x,y,z,yz,xz,xy] (kbar):       -8.06       -4.12       -1.61        0.23        0.38       -5.55
(Free)E + p*V (eV/cell)     -893.2567
Target enthalpy (eV/cell)     -896.1259

siesta: Stress tensor (static) (eV/Ang**3):
        -0.003945   -0.003498   -0.000141
        -0.003498   -0.000227   -0.001901
        -0.000141   -0.001901    0.002092

siesta: Pressure (static):          1.11138458  kBar

siesta: Stress tensor (total) (eV/Ang**3):
        -0.005031   -0.003465    0.000237
        -0.003465   -0.002571    0.000146
         0.000237    0.000146   -0.001006

siesta: Pressure (total):          4.59701184  kBar

siesta: Temp_ion =    7030.989 K

                     ====================================
                        Begin MD step =     12
                     ====================================

outcell: Unit cell vectors (Ang):
       10.000004    0.000000    0.000000
        0.000000   10.000004    0.000000
        0.000000    0.000000   10.000004

outcell: Cell vector modules (Ang)   :   10.000004   10.000004   10.000004
outcell: Cell angles (23,13,12) (deg):     90.0000     90.0000     90.0000
outcell: Cell volume (Ang**3)        :   1000.0012
<dSpData1D:S at geom step 12
  <sparsity:sparsity for geom step 12
    nrows_g=26 nrows=26 sparsity=1.0000 nnzs=676, refcount: 7>
  <dData1D:(new from dSpData1D) n=676, refcount: 1>
refcount: 1>
new_DM -- step:    12
Re-using DM from previous geometries...
Number of DMs in history: 1
 DM extrapolation coefficients: 
1   1.00000
New DM after history re-use:
<dSpData2D:SpM extrapolated using coords
  <sparsity:sparsity for geom step 12
    nrows_g=26 nrows=26 sparsity=1.0000 nnzs=676, refcount: 9>
  <dData2D:(temp array for extrapolation) n=676 m=1, refcount: 1>
refcount: 1>
Note: For starting DM, Qtot, Tr[D*S] =         14.00000000         13.92512337
No. of atoms with KB's overlaping orbs in proc 0. Max # of overlaps:       4      26

InitMesh: MESH = 90 x 90 x 90 = 729000
InitMesh: Mesh cutoff (required, used) =   200.000   223.865 Ry
New grid distribution [1]: sub = 2

        iscf     Eharris(eV)        E_KS(eV)     FreeEng(eV)     dDmax    Ef(eV) dHmax(eV)
   scf:    1     -861.043106     -884.336507     -884.336531  1.451701 -4.609704 15.085668
   scf:    2     -775.632631     -862.054474     -862.054474  1.721050 -5.847231 37.181504
   scf:    3     -906.275022     -886.804201     -886.804201  0.511323 -5.361860 16.206448
   scf:    4     -894.719707     -891.060312     -891.060312  0.156041 -5.235947 10.880465
   scf:    5     -889.319588     -890.207569     -890.207569  0.039711 -5.380288 12.071820
   scf:    6     -764.401952     -859.245365     -859.245365  1.778420 -4.286393 28.468242
   scf:    7     -907.609147     -892.890126     -892.925502  0.993217 -4.982789  7.000835
   scf:    8     -885.168511     -893.483202     -893.483205  0.952322 -5.185794  7.315116
   scf:    9     -871.368417     -889.571839     -889.592460  1.312638 -4.929935 10.679752
   scf:   10     -883.627708     -886.745685     -886.748609  0.195508 -4.863007 13.115685
   scf:   11     -893.388815     -895.479260     -895.492066  1.384327 -5.026331  1.574252
   scf:   12     -894.988702     -895.269523     -895.275804  0.084116 -5.028212  2.699568
   scf:   13     -894.811520     -895.459500     -895.499089  0.336793 -4.981186  1.455328
   scf:   14     -895.589875     -895.531744     -895.571169  0.045475 -4.975516  0.995011
   scf:   15     -895.442160     -895.489649     -895.529550  0.026054 -4.972994  1.312319
   scf:   16     -886.976956     -892.371865     -892.427786  0.690448 -4.987692  7.718854
   scf:   17     -894.072544     -893.257536     -893.319178  0.117656 -4.999079  6.562158
   scf:   18     -894.442372     -895.506703     -895.532413  0.792566 -5.024635  1.450066
   scf:   19     -895.617593     -895.572217     -895.604579  0.047959 -5.012743  0.774342
   scf:   20     -895.602506     -895.590110     -895.626281  0.029705 -5.012297  0.448060
   scf:   21     -895.527787     -895.581124     -895.626012  0.082550 -5.003836  0.519408
   scf:   22     -895.603686     -895.597750     -895.637979  0.042246 -5.007386  0.044485
[...]
   scf:    9     -897.116909     -897.066244     -897.157706  0.222909 -5.353790  0.128061
   scf:   10     -897.068433     -897.067730     -897.158842  0.020195 -5.347225  0.114315
   scf:   11     -896.986143     -897.055648     -897.138136  0.163442 -5.318598  0.273511
   scf:   12     -897.088284     -897.075028     -897.160097  0.061274 -5.331477  0.137961
   scf:   13     -896.775365     -896.996566     -897.088355  0.249253 -5.334227  0.478973
   scf:   14     -897.090406     -897.084861     -897.171671  0.183026 -5.285706  0.067029
   scf:   15     -897.085073     -897.085189     -897.172407  0.012778 -5.288766  0.056688
   scf:   16     -897.085346     -897.085292     -897.172423  0.006392 -5.288045  0.053859
   scf:   17     -897.085423     -897.085378     -897.172333  0.004202 -5.287898  0.053757
   scf:   18     -897.085081     -897.085355     -897.172562  0.009130 -5.292666  0.045057
   scf:   19     -897.085233     -897.085306     -897.172686  0.003172 -5.293713  0.043218
   scf:   20     -897.084340     -897.084898     -897.172653  0.008113 -5.303714  0.022304
   scf:   21     -897.085046     -897.085066     -897.172800  0.011118 -5.306789  0.010027
   scf:   22     -897.085219     -897.085151     -897.172842  0.002742 -5.307169  0.005719
   scf:   23     -897.085173     -897.085169     -897.172865  0.002700 -5.308056  0.003352
   scf:   24     -897.085191     -897.085180     -897.172867  0.000765 -5.308278  0.003020
   scf:   25     -897.085248     -897.085216     -897.172866  0.001093 -5.308136  0.003207
   scf:   26     -897.085240     -897.085228     -897.172866  0.000549 -5.307777  0.003606
   scf:   27     -897.085223     -897.085226     -897.172867  0.000207 -5.307342  0.003603
   scf:   28     -897.085181     -897.085204     -897.172870  0.000702 -5.307617  0.003072
   scf:   29     -897.085170     -897.085187     -897.172870  0.000395 -5.307924  0.002713
   scf:   30     -897.085160     -897.085174     -897.172870  0.000342 -5.308290  0.002019
   scf:   31     -897.085152     -897.085164     -897.172872  0.001142 -5.309100  0.000652
   scf:   32     -897.085159     -897.085161     -897.172872  0.000267 -5.309129  0.000583

SCF Convergence by DM+H criterion
max |DM_out - DM_in|         :     0.0002669319
max |H_out - H_in|      (eV) :     0.0005825130
SCF cycle converged after 32 iterations

Using DM_out to compute the final energy and forces
No. of atoms with KB's overlaping orbs in proc 0. Max # of overlaps:       4      26

siesta: E_KS(eV) =             -897.0852

siesta: Atomic forces (eV/Ang):
----------------------------------------
   Tot   -0.001025    0.006556    0.006349
----------------------------------------
   Max    5.414378
   Res    2.462651    sqrt( Sum f_i^2 / 3N )
----------------------------------------
   Max    5.414378    constrained

Stress tensor Voigt[x,y,z,yz,xz,xy] (kbar):        5.55       -3.61       -6.36        2.57       -5.15        1.85
(Free)E + p*V (eV/cell)     -896.2533
Target enthalpy (eV/cell)     -897.1729

siesta: Stress tensor (static) (eV/Ang**3):
         0.005289   -0.000258   -0.001706
        -0.000258    0.000976    0.000319
        -0.001706    0.000319   -0.001901

siesta: Pressure (static):         -2.33065651  kBar

siesta: Stress tensor (total) (eV/Ang**3):
         0.003464    0.001155   -0.003216
         0.001155   -0.002252    0.001606
        -0.003217    0.001606   -0.003970

siesta: Pressure (total):          1.47323564  kBar

siesta: Temp_ion =    9301.082 K

                     ====================================
                        Begin MD step =    199
                     ====================================

outcell: Unit cell vectors (Ang):
       10.000004    0.000000    0.000000
        0.000000   10.000004    0.000000
        0.000000    0.000000   10.000004

outcell: Cell vector modules (Ang)   :   10.000004   10.000004   10.000004
outcell: Cell angles (23,13,12) (deg):     90.0000     90.0000     90.0000
outcell: Cell volume (Ang**3)        :   1000.0012
<dSpData1D:S at geom step 199
  <sparsity:sparsity for geom step 199
    nrows_g=26 nrows=26 sparsity=1.0000 nnzs=676, refcount: 7>
  <dData1D:(new from dSpData1D) n=676, refcount: 1>
refcount: 1>
new_DM -- step:   199
Re-using DM from previous geometries...
Number of DMs in history: 1
 DM extrapolation coefficients: 
1   1.00000
New DM after history re-use:
<dSpData2D:SpM extrapolated using coords
  <sparsity:sparsity for geom step 199
    nrows_g=26 nrows=26 sparsity=1.0000 nnzs=676, refcount: 9>
  <dData2D:(temp array for extrapolation) n=676 m=1, refcount: 1>
refcount: 1>
Note: For starting DM, Qtot, Tr[D*S] =         14.00000000         14.05404896
No. of atoms with KB's overlaping orbs in proc 0. Max # of overlaps:       4      26

InitMesh: MESH = 90 x 90 x 90 = 729000
InitMesh: Mesh cutoff (required, used) =   200.000   223.865 Ry
New grid distribution [1]: sub = 2

        iscf     Eharris(eV)        E_KS(eV)     FreeEng(eV)     dDmax    Ef(eV) dHmax(eV)
   scf:    1     -893.509026     -895.316138     -895.407607  0.440395 -5.566702  3.393161
   scf:    2     -815.583279     -870.070763     -870.070763  1.257335 -5.438440 22.376210
   scf:    3     -899.841234     -895.602991     -895.638979  1.079535 -5.618133  1.842313
   scf:    4     -895.936923     -895.795794     -895.856256  0.158284 -5.594314  1.157091
   scf:    5     -894.318675     -895.550720     -895.643468  0.733993 -5.457346  2.147578
   scf:    6     -895.238368     -895.847370     -895.916917  0.632501 -5.444752  1.001297
   scf:    7     -894.140274     -895.503786     -895.594680  0.703366 -5.359037  1.573634
   scf:    8     -896.058978     -895.953757     -896.044559  0.404521 -5.398250  0.124002
   scf:    9     -895.959472     -895.956995     -896.047522  0.021667 -5.397182  0.104511
   scf:   10     -895.963951     -895.961503     -896.050798  0.029731 -5.397233  0.057614
   scf:   11     -895.918466     -895.945502     -896.037135  0.051249 -5.359424  0.222585
   scf:   12     -895.956495     -895.963139     -896.050059  0.101725 -5.380009  0.128945
   scf:   13     -895.963707     -895.963868     -896.051809  0.017736 -5.368320  0.037343
   scf:   14     -895.963512     -895.963824     -896.052142  0.009603 -5.355839  0.025419
   scf:   15     -895.964046     -895.963945     -896.052129  0.002361 -5.355332  0.019819
   scf:   16     -895.963571     -895.963806     -896.052138  0.007653 -5.361746  0.017216
   scf:   17     -895.963422     -895.963634     -896.052179  0.004688 -5.363238  0.007668
   scf:   18     -895.963799     -895.963723     -896.052193  0.002260 -5.363730  0.005084
   scf:   19     -895.963786     -895.963760     -896.052208  0.002095 -5.361856  0.004237
   scf:   20     -895.963765     -895.963762     -896.052208  0.000062 -5.361841  0.003969
   scf:   21     -895.963723     -895.963744     -896.052207  0.001170 -5.361747  0.001266
   scf:   22     -895.963767     -895.963755     -896.052208  0.000245 -5.361516  0.000967

SCF Convergence by DM+H criterion
max |DM_out - DM_in|         :     0.0002449263
max |H_out - H_in|      (eV) :     0.0009672905
SCF cycle converged after 22 iterations

Using DM_out to compute the final energy and forces
No. of atoms with KB's overlaping orbs in proc 0. Max # of overlaps:       4      26

siesta: E_KS(eV) =             -895.9638

siesta: Atomic forces (eV/Ang):
----------------------------------------
   Tot   -0.004511    0.000203    0.011063
----------------------------------------
   Max   15.078004
   Res    7.557990    sqrt( Sum f_i^2 / 3N )
----------------------------------------
   Max   15.078004    constrained

Stress tensor Voigt[x,y,z,yz,xz,xy] (kbar):       -4.69       -4.67      -13.87        0.02      -13.31       -1.62
(Free)E + p*V (eV/cell)     -891.2183
Target enthalpy (eV/cell)     -896.0522

siesta: Stress tensor (static) (eV/Ang**3):
        -0.000918   -0.001885   -0.006861
        -0.001885    0.000395   -0.001117
        -0.006861   -0.001117   -0.006766

siesta: Pressure (static):          3.89233254  kBar

siesta: Stress tensor (total) (eV/Ang**3):
        -0.002926   -0.001014   -0.008309
        -0.001013   -0.002918    0.000013
        -0.008309    0.000013   -0.008658

siesta: Pressure (total):          7.74478675  kBar

siesta: Temp_ion =    6948.237 K

                     ====================================
                        Begin MD step =    200
                     ====================================

outcell: Unit cell vectors (Ang):
       10.000004    0.000000    0.000000
        0.000000   10.000004    0.000000
        0.000000    0.000000   10.000004

outcell: Cell vector modules (Ang)   :   10.000004   10.000004   10.000004
outcell: Cell angles (23,13,12) (deg):     90.0000     90.0000     90.0000
outcell: Cell volume (Ang**3)        :   1000.0012
<dSpData1D:S at geom step 200
  <sparsity:sparsity for geom step 200
    nrows_g=26 nrows=26 sparsity=1.0000 nnzs=676, refcount: 7>
  <dData1D:(new from dSpData1D) n=676, refcount: 1>
refcount: 1>
new_DM -- step:   200
Re-using DM from previous geometries...
Number of DMs in history: 1
 DM extrapolation coefficients: 
1   1.00000
New DM after history re-use:
<dSpData2D:SpM extrapolated using coords
  <sparsity:sparsity for geom step 200
    nrows_g=26 nrows=26 sparsity=1.0000 nnzs=676, refcount: 9>
  <dData2D:(temp array for extrapolation) n=676 m=1, refcount: 1>
refcount: 1>
No. of atoms with KB's overlaping orbs in proc 0. Max # of overlaps:       4      26

InitMesh: MESH = 90 x 90 x 90 = 729000
InitMesh: Mesh cutoff (required, used) =   200.000   223.865 Ry
New grid distribution [1]: sub = 2

        iscf     Eharris(eV)        E_KS(eV)     FreeEng(eV)     dDmax    Ef(eV) dHmax(eV)
   scf:    1     -896.465241     -896.596209     -896.671536  0.197970 -5.367671  0.484380
   scf:    2     -892.332730     -895.331128     -895.377602  0.895879 -4.937090  2.735563
   scf:    3     -896.927261     -896.403064     -896.494643  0.581588 -5.322087  1.096139
   scf:    4     -895.359769     -895.940143     -896.017336  0.214174 -5.277710  1.827716
   scf:    5     -895.719574     -895.833847     -895.906723  0.072060 -5.263925  1.967166
   scf:    6     -895.826921     -895.830386     -895.903071  0.001249 -5.262634  1.972952
   scf:    7     -896.685736     -896.601696     -896.691569  0.517217 -5.390984  0.253400
   scf:    8     -895.846734     -896.376635     -896.432793  0.351559 -5.461035  1.092354
   scf:    9     -896.372027     -896.619301     -896.711716  0.449406 -5.375896  0.409908
   scf:   10     -896.643065     -896.660094     -896.746105  0.146913 -5.403411  0.184517
   scf:   11     -896.649439     -896.661491     -896.750524  0.085869 -5.397191  0.063698
   scf:   12     -896.620953     -896.653976     -896.738317  0.105422 -5.409781  0.261624
   scf:   13     -896.652508     -896.663058     -896.752009  0.088019 -5.396962  0.044685
   scf:   14     -896.665076     -896.664254     -896.752725  0.014039 -5.396356  0.018575
   scf:   15     -896.664214     -896.664345     -896.752569  0.014493 -5.391325  0.030283
   scf:   16     -896.664697     -896.664717     -896.752777  0.014778 -5.385622  0.013097
   scf:   17     -896.664530     -896.664634     -896.752836  0.002669 -5.385134  0.008490
   scf:   18     -896.664561     -896.664603     -896.752835  0.002445 -5.383679  0.007161
   scf:   19     -896.664571     -896.664593     -896.752844  0.002338 -5.382460  0.005517
   scf:   20     -896.664567     -896.664583     -896.752855  0.002340 -5.381767  0.004748
   scf:   21     -896.664586     -896.664591     -896.752868  0.002505 -5.380602  0.002367
   scf:   22     -896.664574     -896.664582     -896.752868  0.000162 -5.380899  0.001782
   scf:   23     -896.664555     -896.664569     -896.752869  0.000300 -5.381362  0.001012
   scf:   24     -896.664554     -896.664562     -896.752869  0.000632 -5.381487  0.000716
   scf:   25     -896.664549     -896.664556     -896.752869  0.000155 -5.381533  0.000562

SCF Convergence by DM+H criterion
max |DM_out - DM_in|         :     0.0001545512
max |H_out - H_in|      (eV) :     0.0005616208
SCF cycle converged after 25 iterations

Using DM_out to compute the final energy and forces
No. of atoms with KB's overlaping orbs in proc 0. Max # of overlaps:       4      26

siesta: E_KS(eV) =             -896.6646

siesta: Atomic forces (eV/Ang):
----------------------------------------
   Tot   -0.004550   -0.011608    0.000676
----------------------------------------
   Max   10.945468
   Res    5.846759    sqrt( Sum f_i^2 / 3N )
----------------------------------------
   Max   10.945468    constrained

Stress tensor Voigt[x,y,z,yz,xz,xy] (kbar):       -5.60       -6.03       -9.00       -1.98       -8.62       -4.29
(Free)E + p*V (eV/cell)     -892.4607
Target enthalpy (eV/cell)     -896.7529

siesta: Stress tensor (static) (eV/Ang**3):
        -0.002028   -0.002568   -0.005198
        -0.002568   -0.000234   -0.001805
        -0.005198   -0.001804   -0.005226

siesta: Pressure (static):          3.99885534  kBar

siesta: Stress tensor (total) (eV/Ang**3):
        -0.003493   -0.002681   -0.005377
        -0.002680   -0.003767   -0.001235
        -0.005377   -0.001235   -0.005617

siesta: Pressure (total):          6.87677476  kBar

siesta: Temp_ion =    8347.572 K

coxmol: Writing XMOL coordinates into file xoc.xyz                                                                                                                                                                                                                             

siesta: Program's energy decomposition (eV):
siesta: Ebs     =      -178.987350
siesta: Eions   =      1581.702395
siesta: Ena     =       340.150166
siesta: Ekin    =       660.410118
siesta: Enl     =      -103.910768
siesta: Eso     =         0.000000
siesta: Edftu   =         0.000000
siesta: DEna    =        -2.504561
siesta: DUscf   =         1.014235
siesta: DUext   =         0.000000
siesta: Ex      =      -196.196125
siesta: Ec      =       -13.925226
siesta: Exc     =      -210.121351
siesta: EbV     =         0.000000
siesta: eta*DQ  =         0.000000
siesta: Emadel  =         0.000000
siesta: Emeta   =         0.000000
siesta: Emolmec =         0.000000
siesta: Ekinion =         3.237021
siesta: Eharris =      -893.427528
siesta: Etot    =      -893.427534
siesta: FreeEng =      -893.515848

siesta: Final energy (eV):
siesta:  Band Struct. =    -178.987350
siesta:       Kinetic =     660.410118
siesta:       Hartree =     873.991976
siesta:         Edftu =       0.000000
siesta:       Eso     =       0.000000
siesta:    Ext. field =       0.000000
siesta:         Exch. =    -196.196125
siesta:         Corr. =     -13.925226
siesta:     Bulk bias =       0.000000
siesta:   Exch.-corr. =    -210.121351
siesta:  Ion-electron =   -2319.459422
siesta:       Ion-ion =      98.514124
siesta:       Ekinion =       3.237021
siesta: D3 dispersion =       0.000000
siesta:         Total =    -893.427534
siesta:         Fermi =      -5.381533

siesta: Atomic forces (eV/Ang):
siesta:      1   -0.186785    0.256652    0.139716
siesta:      2  -10.945468   -3.532187   -9.994505
siesta:      3    2.633999   -0.153304    0.535805
siesta:      4    8.493704    3.417231    9.319660
siesta: ----------------------------------------
siesta:    Tot   -0.004550   -0.011608    0.000676

siesta: Stress tensor (static) (eV/Ang**3):
siesta:    -0.002028   -0.002568   -0.005198
siesta:    -0.002568   -0.000234   -0.001805
siesta:    -0.005198   -0.001804   -0.005226

siesta: Cell volume =       1000.001196 Ang**3

siesta: Pressure (static):
siesta:                Solid            Molecule  Units
siesta:           0.00002718         -0.00000008  Ry/Bohr**3
siesta:           0.00249589         -0.00000729  eV/Ang**3
siesta:           3.99885534         -0.01167695  kBar
(Free)E+ p_basis*V_orbitals  =        -895.994160
(Free)Eharris+ p_basis*V_orbitals  =        -895.994154

siesta: Electric dipole (a.u.)  =   -0.547942    0.497697    0.376291
siesta: Electric dipole (Debye) =   -1.392730    1.265020    0.956436

cite: Please see "xoc.bib" for an exhaustive BiBTeX file.
cite: Please clearly indicate Siesta version in published work: 5.2.1
cite: This calculation has made use of the following articles
cite: which are encouraged to be cited in a published work.
        Primary SIESTA paper
          DOI: www.doi.org/10.1088/0953-8984/14/11/302


timer: Elapsed wall time (sec) =     858.450
timer: CPU execution times (sec):

Routine            Calls   Time/call    Tot.time        %
siesta                 1    3877.702    3877.702   100.00
Setup                  1       0.902       0.902     0.02
bands                  1       0.000       0.000     0.00
KSV_init               1       0.000       0.000     0.00
IterGeom             200      19.384    3876.800    99.98
geom_init            200       0.203      40.566     1.05
state_init           200       0.001       0.162     0.00
hsparse              200       0.000       0.007     0.00
overlap              200       0.001       0.115     0.00
Setup_H0             200       0.094      18.714     0.48
naefs                400       0.000       0.007     0.00
dnaefs               400       0.000       0.006     0.00
MolMec               400       0.000       0.000     0.00
kinefsm              400       0.000       0.135     0.00
nlefsm               400       0.002       0.744     0.02
DHSCF_Init           200       0.090      18.002     0.46
DHSCF1               200       0.008       1.598     0.04
InitMesh             200       0.008       1.596     0.04
INITMESH             200       0.000       0.000     0.00
DHSCF2               200       0.082      16.403     0.42
REMESH               200       0.003       0.647     0.02
REORD              17284       0.002      39.268     1.01
PHION                200       0.040       7.955     0.21
COMM_BSC           29168       0.002      52.558     1.36
POISON              7342       0.161    1182.381    30.49
fft                14684       0.057     839.435    21.65
setup_H             6942       0.549    3813.441    98.34
DHSCF               7142       0.538    3843.860    99.13
DHSCF3              7142       0.536    3829.685    98.76
rhoofd              7142       0.037     265.121     6.84
XC                  7142       0.281    2007.238    51.76
GXC-CellXC          7142       0.267    1910.429    49.27
gridxc@cellXC       7142       0.267    1910.249    49.26
vmat                7142       0.004      29.363     0.76
IterSCF             6742       0.564    3800.194    98.00
compute_dm          6742       0.001       7.493     0.19
diagon              6742       0.001       7.388     0.19
r-eigvec            6742       0.001       6.334     0.16
r-buildHS           6742       0.000       0.015     0.00
rdiag               6742       0.001       6.290     0.16
rdiag1              6742       0.000       0.029     0.00
rdiag2              6742       0.000       0.087     0.00
rdiag3              6742       0.001       5.817     0.15
rdiag4              6742       0.000       0.265     0.01
r-buildD            6742       0.000       0.711     0.02
MIXER               6542       0.000       0.180     0.00
PostSCF              200       0.179      35.873     0.93
FINAL_HF             200       0.179      35.869     0.93
DHSCF4               200       0.071      14.151     0.36
dfscf                200       0.053      10.532     0.27
overfsm              200       0.000       0.034     0.00
writeHSX             200       0.000       0.017     0.00
state_analysis       200       0.000       0.022     0.00
siesta_move          200       0.000       0.048     0.00
Analysis               1       0.000       0.000     0.00
optical                1       0.000       0.000     0.00
  

>> End of run:  24-MAR-2025  17:04:36
Job completed
Job completed
